<?xml version="1.0" encoding="UTF-8"?>

<!-- generated on 2026-01-18 21:24:02 by Eclipse SUMO GUI Version 1.24.0
<sumoConfiguration xmlns:xsi="http://www.w3.org/2001/XMLSchema-instance" xsi:noNamespaceSchemaLocation="http://sumo.dlr.de/xsd/sumoConfiguration.xsd">

    <input>
        <net-file value="C:\Users\yelme\.Intellij\SUMO_GUIFX\sumo\osm.net.xml.gz"/>
        <route-files value="C:\Users\yelme\.Intellij\SUMO_GUIFX\sumo\osm.passenger.trips.xml"/>
        <additional-files value="C:\Users\yelme\.Intellij\SUMO_GUIFX\sumo\osm.poly.xml.gz,C:\Users\yelme\.Intellij\SUMO_GUIFX\sumo\output.add.xml"/>
    </input>

    <output>
        <tripinfo-output value="C:\Users\yelme\.Intellij\SUMO_GUIFX\sumo\tripinfos.xml"/>
        <statistic-output value="C:\Users\yelme\.Intellij\SUMO_GUIFX\sumo\stats.xml"/>
    </output>

    <processing>
        <ignore-route-errors value="true"/>
        <tls.actuated.jam-threshold value="30"/>
    </processing>

    <routing>
        <device.rerouting.adaptation-steps value="18"/>
        <device.rerouting.adaptation-interval value="10"/>
    </routing>

    <report>
        <verbose value="true"/>
        <duration-log.statistics value="true"/>
        <no-step-log value="true"/>
    </report>

    <traci_server>
        <remote-port value="49253"/>
    </traci_server>

    <gui_only>
        <gui-settings-file value="C:\Users\yelme\.Intellij\SUMO_GUIFX\sumo\osm.view.xml"/>
        <quit-on-end value="false"/>
        <start value="true"/>
        <delay value="50"/>
    </gui_only>

</sumoConfiguration>
-->

<meandata xmlns:xsi="http://www.w3.org/2001/XMLSchema-instance" xsi:noNamespaceSchemaLocation="http://sumo.dlr.de/xsd/meandata_file.xsd">
    <interval begin="0.00" end="1720.00" id="wizard_example">
        <edge id="-1000804075#0" sampledSeconds="0.00" departed="0" arrived="0" entered="0" left="0" laneChangedFrom="0" laneChangedTo="0"/>
        <edge id="-1000804075#1" sampledSeconds="0.00" departed="0" arrived="0" entered="0" left="0" laneChangedFrom="0" laneChangedTo="0"/>
        <edge id="-1000905151#0" sampledSeconds="0.00" departed="0" arrived="0" entered="0" left="0" laneChangedFrom="0" laneChangedTo="0"/>
        <edge id="-1000905151#1" sampledSeconds="0.00" departed="0" arrived="0" entered="0" left="0" laneChangedFrom="0" laneChangedTo="0"/>
        <edge id="-1001433175" sampledSeconds="0.00" departed="0" arrived="0" entered="0" left="0" laneChangedFrom="0" laneChangedTo="0"/>
        <edge id="-1001433176" sampledSeconds="0.00" departed="0" arrived="0" entered="0" left="0" laneChangedFrom="0" laneChangedTo="0"/>
        <edge id="-1001433179" sampledSeconds="0.00" departed="0" arrived="0" entered="0" left="0" laneChangedFrom="0" laneChangedTo="0"/>
        <edge id="-1001433180" sampledSeconds="0.00" departed="0" arrived="0" entered="0" left="0" laneChangedFrom="0" laneChangedTo="0"/>
        <edge id="-1001433181" sampledSeconds="0.00" departed="0" arrived="0" entered="0" left="0" laneChangedFrom="0" laneChangedTo="0"/>
        <edge id="-1007121658#1" sampledSeconds="0.00" departed="0" arrived="0" entered="0" left="0" laneChangedFrom="0" laneChangedTo="0"/>
        <edge id="-1021922636" sampledSeconds="16.24" traveltime="0.51" overlapTraveltime="1.29" density="2.57" laneDensity="2.57" occupancy="0.56" waitingTime="0.00" timeLoss="2.72" speed="6.72" speedRelative="0.81" departed="1" arrived="0" entered="12" left="13" laneChangedFrom="0" laneChangedTo="0"/>
        <edge id="-10498488" sampledSeconds="0.00" departed="0" arrived="0" entered="0" left="0" laneChangedFrom="0" laneChangedTo="0"/>
        <edge id="-107957757#0" sampledSeconds="6.72" traveltime="2.89" overlapTraveltime="3.94" density="0.32" laneDensity="0.32" occupancy="0.12" waitingTime="0.00" timeLoss="3.01" speed="4.41" speedRelative="0.53" departed="1" arrived="0" entered="1" left="2" laneChangedFrom="0" laneChangedTo="0"/>
        <edge id="-107957757#1" sampledSeconds="1.90" traveltime="1.31" overlapTraveltime="1.90" density="0.10" laneDensity="0.10" occupancy="0.03" waitingTime="0.00" timeLoss="0.10" speed="8.75" speedRelative="1.05" departed="0" arrived="0" entered="1" left="1" laneChangedFrom="0" laneChangedTo="0"/>
        <edge id="-107957757#2" sampledSeconds="20.46" traveltime="9.46" overlapTraveltime="10.61" density="0.18" laneDensity="0.18" occupancy="0.08" waitingTime="0.00" timeLoss="4.17" speed="6.76" speedRelative="0.81" departed="1" arrived="0" entered="1" left="2" laneChangedFrom="0" laneChangedTo="0"/>
        <edge id="-1079661290" sampledSeconds="0.00" departed="0" arrived="0" entered="0" left="0" laneChangedFrom="0" laneChangedTo="0"/>
        <edge id="-1081646218#0" sampledSeconds="155.80" traveltime="8.48" overlapTraveltime="9.16" density="2.23" laneDensity="2.23" occupancy="1.03" waitingTime="54.00" timeLoss="65.72" speed="4.98" speedRelative="0.60" departed="0" arrived="0" entered="17" left="17" laneChangedFrom="0" laneChangedTo="0"/>
        <edge id="-1081646218#1" sampledSeconds="286.41" traveltime="16.26" overlapTraveltime="16.89" density="1.30" laneDensity="1.30" occupancy="0.63" waitingTime="0.00" timeLoss="24.10" speed="7.89" speedRelative="0.95" departed="1" arrived="0" entered="16" left="17" laneChangedFrom="0" laneChangedTo="0"/>
        <edge id="-1081646218#2" sampledSeconds="20.94" traveltime="1.00" overlapTraveltime="1.74" density="2.18" laneDensity="2.18" occupancy="0.57" waitingTime="0.00" timeLoss="6.62" speed="6.06" speedRelative="0.73" departed="0" arrived="0" entered="12" left="12" laneChangedFrom="0" laneChangedTo="0"/>
        <edge id="-1081646218#3" sampledSeconds="18.21" traveltime="0.74" overlapTraveltime="1.58" density="2.02" laneDensity="2.02" occupancy="0.52" waitingTime="0.00" timeLoss="4.89" speed="6.47" speedRelative="0.78" departed="1" arrived="0" entered="11" left="12" laneChangedFrom="0" laneChangedTo="0"/>
        <edge id="-1081647938" sampledSeconds="4.28" traveltime="0.14" overlapTraveltime="0.86" density="2.49" laneDensity="2.49" occupancy="0.21" waitingTime="0.00" timeLoss="0.61" speed="7.02" speedRelative="0.84" departed="0" arrived="0" entered="5" left="5" laneChangedFrom="0" laneChangedTo="0"/>
        <edge id="-1081648321" sampledSeconds="0.00" departed="0" arrived="0" entered="0" left="0" laneChangedFrom="0" laneChangedTo="0"/>
        <edge id="-1081679730#0" sampledSeconds="0.00" departed="0" arrived="0" entered="0" left="0" laneChangedFrom="0" laneChangedTo="0"/>
        <edge id="-1081679730#1" sampledSeconds="0.00" departed="0" arrived="0" entered="0" left="0" laneChangedFrom="0" laneChangedTo="0"/>
        <edge id="-1086288318#0" sampledSeconds="0.00" departed="0" arrived="0" entered="0" left="0" laneChangedFrom="0" laneChangedTo="0"/>
        <edge id="-1086289480#0" sampledSeconds="0.00" departed="0" arrived="0" entered="0" left="0" laneChangedFrom="0" laneChangedTo="0"/>
        <edge id="-1086289480#2" sampledSeconds="0.00" departed="0" arrived="0" entered="0" left="0" laneChangedFrom="0" laneChangedTo="0"/>
        <edge id="-1086450112#0" sampledSeconds="0.00" departed="0" arrived="0" entered="0" left="0" laneChangedFrom="0" laneChangedTo="0"/>
        <edge id="-1086450112#1" sampledSeconds="0.00" departed="0" arrived="0" entered="0" left="0" laneChangedFrom="0" laneChangedTo="0"/>
        <edge id="-1087270700#0" sampledSeconds="0.00" departed="0" arrived="0" entered="0" left="0" laneChangedFrom="0" laneChangedTo="0"/>
        <edge id="-1087270700#1" sampledSeconds="0.00" departed="0" arrived="0" entered="0" left="0" laneChangedFrom="0" laneChangedTo="0"/>
        <edge id="-1093566176" sampledSeconds="0.00" departed="0" arrived="0" entered="0" left="0" laneChangedFrom="0" laneChangedTo="0"/>
        <edge id="-1098307272" sampledSeconds="0.00" departed="0" arrived="0" entered="0" left="0" laneChangedFrom="0" laneChangedTo="0"/>
        <edge id="-1099721720" sampledSeconds="0.00" departed="0" arrived="0" entered="0" left="0" laneChangedFrom="0" laneChangedTo="0"/>
        <edge id="-1104924924" sampledSeconds="0.00" departed="0" arrived="0" entered="0" left="0" laneChangedFrom="0" laneChangedTo="0"/>
        <edge id="-1107323962" sampledSeconds="0.00" departed="0" arrived="0" entered="0" left="0" laneChangedFrom="0" laneChangedTo="0"/>
        <edge id="-1107722606" sampledSeconds="0.00" departed="0" arrived="0" entered="0" left="0" laneChangedFrom="0" laneChangedTo="0"/>
        <edge id="-1107929245" sampledSeconds="0.00" departed="0" arrived="0" entered="0" left="0" laneChangedFrom="0" laneChangedTo="0"/>
        <edge id="-1107980416" sampledSeconds="0.00" departed="0" arrived="0" entered="0" left="0" laneChangedFrom="0" laneChangedTo="0"/>
        <edge id="-1118459620" sampledSeconds="0.00" departed="0" arrived="0" entered="0" left="0" laneChangedFrom="0" laneChangedTo="0"/>
        <edge id="-1126551277#0" sampledSeconds="0.00" departed="0" arrived="0" entered="0" left="0" laneChangedFrom="0" laneChangedTo="0"/>
        <edge id="-1126551277#1" sampledSeconds="0.00" departed="0" arrived="0" entered="0" left="0" laneChangedFrom="0" laneChangedTo="0"/>
        <edge id="-1127308975" sampledSeconds="0.00" departed="0" arrived="0" entered="0" left="0" laneChangedFrom="0" laneChangedTo="0"/>
        <edge id="-1127360108#1" sampledSeconds="24.87" traveltime="1.40" overlapTraveltime="2.07" density="1.50" laneDensity="1.50" occupancy="0.49" waitingTime="0.00" timeLoss="2.92" speed="7.05" speedRelative="0.85" departed="0" arrived="0" entered="12" left="12" laneChangedFrom="0" laneChangedTo="0"/>
        <edge id="-1127360108#3" sampledSeconds="57.14" traveltime="3.77" overlapTraveltime="4.76" density="2.54" laneDensity="2.54" occupancy="1.03" waitingTime="9.00" timeLoss="29.99" speed="3.80" speedRelative="0.46" departed="0" arrived="0" entered="12" left="12" laneChangedFrom="0" laneChangedTo="0"/>
        <edge id="-1127360109" sampledSeconds="18.65" traveltime="0.75" overlapTraveltime="1.43" density="2.02" laneDensity="2.02" occupancy="0.52" waitingTime="0.00" timeLoss="1.86" speed="7.22" speedRelative="0.87" departed="0" arrived="0" entered="13" left="13" laneChangedFrom="0" laneChangedTo="0"/>
        <edge id="-1150163951" sampledSeconds="82.17" traveltime="3.15" overlapTraveltime="3.59" density="1.17" laneDensity="0.39" occupancy="0.17" waitingTime="0.00" timeLoss="5.46" speed="12.82" speedRelative="0.92" departed="0" arrived="2" entered="23" left="21" laneChangedFrom="5" laneChangedTo="5"/>
        <edge id="-1156123812#0" sampledSeconds="0.00" departed="0" arrived="0" entered="0" left="0" laneChangedFrom="0" laneChangedTo="0"/>
        <edge id="-1156123813#0" sampledSeconds="0.00" departed="0" arrived="0" entered="0" left="0" laneChangedFrom="0" laneChangedTo="0"/>
        <edge id="-1156123813#1" sampledSeconds="0.00" departed="0" arrived="0" entered="0" left="0" laneChangedFrom="0" laneChangedTo="0"/>
        <edge id="-1157218232" sampledSeconds="7.67" traveltime="3.14" overlapTraveltime="3.83" density="0.19" laneDensity="0.19" occupancy="0.08" waitingTime="0.00" timeLoss="1.03" speed="7.28" speedRelative="0.87" departed="0" arrived="0" entered="2" left="2" laneChangedFrom="0" laneChangedTo="0"/>
        <edge id="-1157218234#0" sampledSeconds="7.38" traveltime="0.03" overlapTraveltime="0.82" density="21.45" laneDensity="21.45" occupancy="0.42" waitingTime="0.00" timeLoss="1.80" speed="6.31" speedRelative="0.76" departed="1" arrived="0" entered="8" left="9" laneChangedFrom="0" laneChangedTo="0"/>
        <edge id="-1157218234#1" sampledSeconds="10.85" traveltime="0.60" overlapTraveltime="1.23" density="1.36" laneDensity="1.36" occupancy="0.33" waitingTime="0.00" timeLoss="0.68" speed="7.85" speedRelative="0.94" departed="0" arrived="1" entered="9" left="8" laneChangedFrom="0" laneChangedTo="0"/>
        <edge id="-1157218234#2" sampledSeconds="48.09" traveltime="4.70" overlapTraveltime="5.34" density="0.77" laneDensity="0.77" occupancy="0.34" waitingTime="0.00" timeLoss="3.80" speed="7.72" speedRelative="0.93" departed="0" arrived="0" entered="9" left="9" laneChangedFrom="0" laneChangedTo="0"/>
        <edge id="-1157218234#3" sampledSeconds="53.26" traveltime="5.28" overlapTraveltime="5.92" density="0.76" laneDensity="0.76" occupancy="0.34" waitingTime="0.00" timeLoss="4.34" speed="7.70" speedRelative="0.92" departed="0" arrived="0" entered="9" left="9" laneChangedFrom="0" laneChangedTo="0"/>
        <edge id="-1157218234#4" sampledSeconds="20.12" traveltime="1.65" overlapTraveltime="2.32" density="1.05" laneDensity="1.05" occupancy="0.37" waitingTime="0.00" timeLoss="3.48" speed="6.94" speedRelative="0.83" departed="1" arrived="0" entered="8" left="9" laneChangedFrom="0" laneChangedTo="0"/>
        <edge id="-1157218235" sampledSeconds="21.96" traveltime="10.17" overlapTraveltime="11.37" density="0.18" laneDensity="0.18" occupancy="0.09" waitingTime="0.00" timeLoss="4.28" speed="6.61" speedRelative="0.79" departed="1" arrived="1" entered="1" left="1" laneChangedFrom="0" laneChangedTo="0"/>
        <edge id="-116327957#0" sampledSeconds="0.00" departed="0" arrived="0" entered="0" left="0" laneChangedFrom="0" laneChangedTo="0"/>
        <edge id="-1174626940" sampledSeconds="0.00" departed="0" arrived="0" entered="0" left="0" laneChangedFrom="0" laneChangedTo="0"/>
        <edge id="-1174626942" sampledSeconds="0.00" departed="0" arrived="0" entered="0" left="0" laneChangedFrom="0" laneChangedTo="0"/>
        <edge id="-1174626946#0" sampledSeconds="0.00" departed="0" arrived="0" entered="0" left="0" laneChangedFrom="0" laneChangedTo="0"/>
        <edge id="-1174626946#1" sampledSeconds="0.00" departed="0" arrived="0" entered="0" left="0" laneChangedFrom="0" laneChangedTo="0"/>
        <edge id="-1174626947#0" sampledSeconds="0.00" departed="0" arrived="0" entered="0" left="0" laneChangedFrom="0" laneChangedTo="0"/>
        <edge id="-1174626947#1" sampledSeconds="0.00" departed="0" arrived="0" entered="0" left="0" laneChangedFrom="0" laneChangedTo="0"/>
        <edge id="-1174626979#0" sampledSeconds="0.00" departed="0" arrived="0" entered="0" left="0" laneChangedFrom="0" laneChangedTo="0"/>
        <edge id="-1174626979#1" sampledSeconds="0.00" departed="0" arrived="0" entered="0" left="0" laneChangedFrom="0" laneChangedTo="0"/>
        <edge id="-1174626981#0" sampledSeconds="0.00" departed="0" arrived="0" entered="0" left="0" laneChangedFrom="0" laneChangedTo="0"/>
        <edge id="-1174626981#1" sampledSeconds="0.00" departed="0" arrived="0" entered="0" left="0" laneChangedFrom="0" laneChangedTo="0"/>
        <edge id="-1178602671" sampledSeconds="217.30" traveltime="11.35" overlapTraveltime="12.07" density="1.49" laneDensity="1.49" occupancy="0.70" waitingTime="0.00" timeLoss="24.62" speed="7.44" speedRelative="0.89" departed="0" arrived="0" entered="18" left="18" laneChangedFrom="0" laneChangedTo="0"/>
        <edge id="-1180983895" sampledSeconds="18.43" traveltime="3.99" overlapTraveltime="6.14" density="1.19" laneDensity="1.19" occupancy="0.38" waitingTime="0.00" timeLoss="3.60" speed="2.28" speedRelative="0.82" departed="0" arrived="0" entered="3" left="3" laneChangedFrom="0" laneChangedTo="0"/>
        <edge id="-1181825285#0" sampledSeconds="5.61" traveltime="5.24" overlapTraveltime="5.61" density="0.05" laneDensity="0.02" occupancy="0.01" waitingTime="0.00" timeLoss="0.19" speed="12.95" speedRelative="0.93" departed="0" arrived="1" entered="1" left="0" laneChangedFrom="0" laneChangedTo="0"/>
        <edge id="-1192943711" sampledSeconds="11.91" traveltime="14.20" overlapTraveltime="15.02" density="0.35" laneDensity="0.35" occupancy="0.17" waitingTime="7.00" timeLoss="10.33" speed="1.64" speedRelative="0.12" departed="1" arrived="0" entered="0" left="1" laneChangedFrom="0" laneChangedTo="0"/>
        <edge id="-1194042864#1" sampledSeconds="0.00" departed="0" arrived="0" entered="0" left="0" laneChangedFrom="0" laneChangedTo="0"/>
        <edge id="-1205914284#0" sampledSeconds="15.31" traveltime="3.09" overlapTraveltime="4.08" density="0.57" laneDensity="0.57" occupancy="0.23" waitingTime="0.00" timeLoss="4.91" speed="5.03" speedRelative="0.60" departed="1" arrived="0" entered="3" left="4" laneChangedFrom="0" laneChangedTo="0"/>
        <edge id="-1210430416#1" sampledSeconds="90.65" traveltime="4.06" overlapTraveltime="5.04" density="6.47" laneDensity="6.47" occupancy="2.70" waitingTime="33.00" timeLoss="73.04" speed="2.61" speedRelative="0.19" departed="0" arrived="0" entered="18" left="18" laneChangedFrom="0" laneChangedTo="0"/>
        <edge id="-1210556406" sampledSeconds="0.00" departed="0" arrived="0" entered="0" left="0" laneChangedFrom="0" laneChangedTo="0"/>
        <edge id="-1211145372#0" sampledSeconds="3.20" traveltime="0.12" overlapTraveltime="1.12" density="2.09" laneDensity="2.09" occupancy="0.17" waitingTime="0.00" timeLoss="1.07" speed="5.25" speedRelative="0.63" departed="1" arrived="0" entered="2" left="3" laneChangedFrom="0" laneChangedTo="0"/>
        <edge id="-1211145372#1" sampledSeconds="18.09" traveltime="8.36" overlapTraveltime="9.04" density="0.17" laneDensity="0.17" occupancy="0.08" waitingTime="0.00" timeLoss="1.54" speed="7.33" speedRelative="0.88" departed="0" arrived="0" entered="2" left="2" laneChangedFrom="0" laneChangedTo="0"/>
        <edge id="-1211145372#2" sampledSeconds="4.71" traveltime="1.66" overlapTraveltime="2.36" density="0.22" laneDensity="0.22" occupancy="0.08" waitingTime="0.00" timeLoss="0.35" speed="7.42" speedRelative="0.89" departed="0" arrived="0" entered="2" left="2" laneChangedFrom="0" laneChangedTo="0"/>
        <edge id="-1212525427" sampledSeconds="0.00" departed="0" arrived="0" entered="0" left="0" laneChangedFrom="0" laneChangedTo="0"/>
        <edge id="-1212546373#1" sampledSeconds="8.54" traveltime="0.04" overlapTraveltime="0.78" density="16.56" laneDensity="16.56" occupancy="0.47" waitingTime="0.00" timeLoss="1.37" speed="6.82" speedRelative="0.82" departed="0" arrived="0" entered="11" left="11" laneChangedFrom="0" laneChangedTo="0"/>
        <edge id="-1212766944" sampledSeconds="0.00" departed="0" arrived="0" entered="0" left="0" laneChangedFrom="0" laneChangedTo="0"/>
        <edge id="-1212766945" sampledSeconds="0.00" departed="0" arrived="0" entered="0" left="0" laneChangedFrom="0" laneChangedTo="0"/>
        <edge id="-1216189012" sampledSeconds="0.00" departed="0" arrived="0" entered="0" left="0" laneChangedFrom="0" laneChangedTo="0"/>
        <edge id="-1245858892" sampledSeconds="0.00" departed="0" arrived="0" entered="0" left="0" laneChangedFrom="0" laneChangedTo="0"/>
        <edge id="-1245858893" sampledSeconds="0.00" departed="0" arrived="0" entered="0" left="0" laneChangedFrom="0" laneChangedTo="0"/>
        <edge id="-1246854348" sampledSeconds="0.00" departed="0" arrived="0" entered="0" left="0" laneChangedFrom="0" laneChangedTo="0"/>
        <edge id="-1251349491" sampledSeconds="0.00" departed="0" arrived="0" entered="0" left="0" laneChangedFrom="0" laneChangedTo="0"/>
        <edge id="-1251349492#0" sampledSeconds="0.00" departed="0" arrived="0" entered="0" left="0" laneChangedFrom="0" laneChangedTo="0"/>
        <edge id="-1251349492#1" sampledSeconds="0.00" departed="0" arrived="0" entered="0" left="0" laneChangedFrom="0" laneChangedTo="0"/>
        <edge id="-1255988377#0" sampledSeconds="50.47" traveltime="15.14" overlapTraveltime="17.43" density="0.88" laneDensity="0.88" occupancy="0.39" waitingTime="0.00" timeLoss="11.71" speed="2.19" speedRelative="0.79" departed="0" arrived="1" entered="3" left="2" laneChangedFrom="0" laneChangedTo="0"/>
        <edge id="-1256907219#0" sampledSeconds="0.00" departed="0" arrived="0" entered="0" left="0" laneChangedFrom="0" laneChangedTo="0"/>
        <edge id="-1256907219#1" sampledSeconds="0.00" departed="0" arrived="0" entered="0" left="0" laneChangedFrom="0" laneChangedTo="0"/>
        <edge id="-1257757586" sampledSeconds="76.48" traveltime="75.63" overlapTraveltime="78.19" density="0.29" laneDensity="0.29" occupancy="0.14" waitingTime="0.00" timeLoss="19.24" speed="2.03" speedRelative="0.73" departed="0" arrived="1" entered="1" left="0" laneChangedFrom="0" laneChangedTo="0"/>
        <edge id="-1257758359" sampledSeconds="0.00" departed="0" arrived="0" entered="0" left="0" laneChangedFrom="0" laneChangedTo="0"/>
        <edge id="-1267335226" sampledSeconds="3.58" traveltime="0.04" overlapTraveltime="0.90" density="8.67" laneDensity="8.67" occupancy="0.20" waitingTime="0.00" timeLoss="0.95" speed="5.85" speedRelative="0.70" departed="0" arrived="0" entered="4" left="4" laneChangedFrom="0" laneChangedTo="0"/>
        <edge id="-1275409856" sampledSeconds="0.00" departed="0" arrived="0" entered="0" left="0" laneChangedFrom="0" laneChangedTo="0"/>
        <edge id="-1275409857" sampledSeconds="0.00" departed="0" arrived="0" entered="0" left="0" laneChangedFrom="0" laneChangedTo="0"/>
        <edge id="-1276634264" sampledSeconds="0.00" departed="0" arrived="0" entered="0" left="0" laneChangedFrom="0" laneChangedTo="0"/>
        <edge id="-1276634266#0" sampledSeconds="0.00" departed="0" arrived="0" entered="0" left="0" laneChangedFrom="0" laneChangedTo="0"/>
        <edge id="-1276634266#1" sampledSeconds="0.00" departed="0" arrived="0" entered="0" left="0" laneChangedFrom="0" laneChangedTo="0"/>
        <edge id="-1276634266#4" sampledSeconds="0.00" departed="0" arrived="0" entered="0" left="0" laneChangedFrom="0" laneChangedTo="0"/>
        <edge id="-1277672060#0" sampledSeconds="0.00" departed="0" arrived="0" entered="0" left="0" laneChangedFrom="0" laneChangedTo="0"/>
        <edge id="-1277672060#1" sampledSeconds="0.00" departed="0" arrived="0" entered="0" left="0" laneChangedFrom="0" laneChangedTo="0"/>
        <edge id="-1277672060#2" sampledSeconds="0.00" departed="0" arrived="0" entered="0" left="0" laneChangedFrom="0" laneChangedTo="0"/>
        <edge id="-1277859014#1" sampledSeconds="0.00" departed="0" arrived="0" entered="0" left="0" laneChangedFrom="0" laneChangedTo="0"/>
        <edge id="-1277859014#2" sampledSeconds="0.00" departed="0" arrived="0" entered="0" left="0" laneChangedFrom="0" laneChangedTo="0"/>
        <edge id="-1277859015#0" sampledSeconds="0.00" departed="0" arrived="0" entered="0" left="0" laneChangedFrom="0" laneChangedTo="0"/>
        <edge id="-1277859015#1" sampledSeconds="0.00" departed="0" arrived="0" entered="0" left="0" laneChangedFrom="0" laneChangedTo="0"/>
        <edge id="-1277935056" sampledSeconds="0.00" departed="0" arrived="0" entered="0" left="0" laneChangedFrom="0" laneChangedTo="0"/>
        <edge id="-1277935058" sampledSeconds="0.00" departed="0" arrived="0" entered="0" left="0" laneChangedFrom="0" laneChangedTo="0"/>
        <edge id="-1277935059" sampledSeconds="0.00" departed="0" arrived="0" entered="0" left="0" laneChangedFrom="0" laneChangedTo="0"/>
        <edge id="-1277935060" sampledSeconds="0.00" departed="0" arrived="0" entered="0" left="0" laneChangedFrom="0" laneChangedTo="0"/>
        <edge id="-1277935061" sampledSeconds="0.00" departed="0" arrived="0" entered="0" left="0" laneChangedFrom="0" laneChangedTo="0"/>
        <edge id="-1277935063" sampledSeconds="0.00" departed="0" arrived="0" entered="0" left="0" laneChangedFrom="0" laneChangedTo="0"/>
        <edge id="-1277935064" sampledSeconds="0.00" departed="0" arrived="0" entered="0" left="0" laneChangedFrom="0" laneChangedTo="0"/>
        <edge id="-1277935065#0" sampledSeconds="0.00" departed="0" arrived="0" entered="0" left="0" laneChangedFrom="0" laneChangedTo="0"/>
        <edge id="-1277935065#1" sampledSeconds="0.00" departed="0" arrived="0" entered="0" left="0" laneChangedFrom="0" laneChangedTo="0"/>
        <edge id="-1277935066#0" sampledSeconds="0.00" departed="0" arrived="0" entered="0" left="0" laneChangedFrom="0" laneChangedTo="0"/>
        <edge id="-1277935068" sampledSeconds="0.00" departed="0" arrived="0" entered="0" left="0" laneChangedFrom="0" laneChangedTo="0"/>
        <edge id="-1277935071" sampledSeconds="0.00" departed="0" arrived="0" entered="0" left="0" laneChangedFrom="0" laneChangedTo="0"/>
        <edge id="-1277935072" sampledSeconds="0.00" departed="0" arrived="0" entered="0" left="0" laneChangedFrom="0" laneChangedTo="0"/>
        <edge id="-1277935074" sampledSeconds="0.00" departed="0" arrived="0" entered="0" left="0" laneChangedFrom="0" laneChangedTo="0"/>
        <edge id="-1277935075" sampledSeconds="0.00" departed="0" arrived="0" entered="0" left="0" laneChangedFrom="0" laneChangedTo="0"/>
        <edge id="-1277935076" sampledSeconds="0.00" departed="0" arrived="0" entered="0" left="0" laneChangedFrom="0" laneChangedTo="0"/>
        <edge id="-1277935078" sampledSeconds="0.00" departed="0" arrived="0" entered="0" left="0" laneChangedFrom="0" laneChangedTo="0"/>
        <edge id="-1277935080" sampledSeconds="0.00" departed="0" arrived="0" entered="0" left="0" laneChangedFrom="0" laneChangedTo="0"/>
        <edge id="-1277945614" sampledSeconds="0.00" departed="0" arrived="0" entered="0" left="0" laneChangedFrom="0" laneChangedTo="0"/>
        <edge id="-1277945615" sampledSeconds="0.00" departed="0" arrived="0" entered="0" left="0" laneChangedFrom="0" laneChangedTo="0"/>
        <edge id="-1277949555" sampledSeconds="0.00" departed="0" arrived="0" entered="0" left="0" laneChangedFrom="0" laneChangedTo="0"/>
        <edge id="-1277949557" sampledSeconds="0.00" departed="0" arrived="0" entered="0" left="0" laneChangedFrom="0" laneChangedTo="0"/>
        <edge id="-1278890189" sampledSeconds="0.00" departed="0" arrived="0" entered="0" left="0" laneChangedFrom="0" laneChangedTo="0"/>
        <edge id="-1278890190" sampledSeconds="0.00" departed="0" arrived="0" entered="0" left="0" laneChangedFrom="0" laneChangedTo="0"/>
        <edge id="-1279349509#0" sampledSeconds="0.00" departed="0" arrived="0" entered="0" left="0" laneChangedFrom="0" laneChangedTo="0"/>
        <edge id="-1279349509#1" sampledSeconds="0.00" departed="0" arrived="0" entered="0" left="0" laneChangedFrom="0" laneChangedTo="0"/>
        <edge id="-1279349511" sampledSeconds="0.00" departed="0" arrived="0" entered="0" left="0" laneChangedFrom="0" laneChangedTo="0"/>
        <edge id="-1279349512" sampledSeconds="0.00" departed="0" arrived="0" entered="0" left="0" laneChangedFrom="0" laneChangedTo="0"/>
        <edge id="-1279349518" sampledSeconds="0.00" departed="0" arrived="0" entered="0" left="0" laneChangedFrom="0" laneChangedTo="0"/>
        <edge id="-1279349519" sampledSeconds="0.00" departed="0" arrived="0" entered="0" left="0" laneChangedFrom="0" laneChangedTo="0"/>
        <edge id="-1279349520" sampledSeconds="0.00" departed="0" arrived="0" entered="0" left="0" laneChangedFrom="0" laneChangedTo="0"/>
        <edge id="-1281173946" sampledSeconds="0.00" departed="0" arrived="0" entered="0" left="0" laneChangedFrom="0" laneChangedTo="0"/>
        <edge id="-1287374897" sampledSeconds="71.97" traveltime="13.70" overlapTraveltime="14.39" density="0.41" laneDensity="0.41" occupancy="0.20" waitingTime="0.00" timeLoss="5.40" speed="7.41" speedRelative="0.89" departed="0" arrived="0" entered="5" left="5" laneChangedFrom="0" laneChangedTo="0"/>
        <edge id="-1287702025" sampledSeconds="73.77" traveltime="72.32" overlapTraveltime="73.77" density="0.66" laneDensity="0.66" occupancy="0.32" waitingTime="63.00" timeLoss="65.94" speed="0.95" speedRelative="0.11" departed="0" arrived="0" entered="1" left="1" laneChangedFrom="0" laneChangedTo="0"/>
        <edge id="-1288875212" sampledSeconds="0.00" departed="0" arrived="0" entered="0" left="0" laneChangedFrom="0" laneChangedTo="0"/>
        <edge id="-1288875214#0" sampledSeconds="0.00" departed="0" arrived="0" entered="0" left="0" laneChangedFrom="0" laneChangedTo="0"/>
        <edge id="-1288875214#1" sampledSeconds="0.00" departed="0" arrived="0" entered="0" left="0" laneChangedFrom="0" laneChangedTo="0"/>
        <edge id="-1288875214#2" sampledSeconds="0.00" departed="0" arrived="0" entered="0" left="0" laneChangedFrom="0" laneChangedTo="0"/>
        <edge id="-1288875219" sampledSeconds="0.00" departed="0" arrived="0" entered="0" left="0" laneChangedFrom="0" laneChangedTo="0"/>
        <edge id="-1288875221" sampledSeconds="0.00" departed="0" arrived="0" entered="0" left="0" laneChangedFrom="0" laneChangedTo="0"/>
        <edge id="-1292347198#1" sampledSeconds="236.97" traveltime="28.14" overlapTraveltime="25.39" density="54.89" laneDensity="54.89" occupancy="8.45" waitingTime="216.00" timeLoss="228.41" speed="0.30" speedRelative="0.04" departed="2" arrived="0" entered="8" left="10" laneChangedFrom="0" laneChangedTo="0"/>
        <edge id="-1292347198#2" sampledSeconds="225.58" traveltime="20.83" overlapTraveltime="28.20" density="2.10" laneDensity="2.10" occupancy="0.89" waitingTime="144.00" timeLoss="160.47" speed="2.39" speedRelative="0.29" departed="0" arrived="0" entered="8" left="8" laneChangedFrom="0" laneChangedTo="0"/>
        <edge id="-1292347198#3" sampledSeconds="86.42" traveltime="7.97" overlapTraveltime="8.75" density="0.87" laneDensity="0.87" occupancy="0.40" waitingTime="0.00" timeLoss="9.90" speed="7.20" speedRelative="0.86" departed="1" arrived="1" entered="9" left="9" laneChangedFrom="0" laneChangedTo="0"/>
        <edge id="-1292348654" sampledSeconds="210.77" traveltime="8.47" overlapTraveltime="9.18" density="2.00" laneDensity="2.00" occupancy="0.92" waitingTime="0.00" timeLoss="21.66" speed="7.22" speedRelative="0.87" departed="0" arrived="1" entered="23" left="22" laneChangedFrom="0" laneChangedTo="0"/>
        <edge id="-1294568743#0" sampledSeconds="0.00" departed="0" arrived="0" entered="0" left="0" laneChangedFrom="0" laneChangedTo="0"/>