<?xml version="1.0" encoding="UTF-8"?>

<!-- generated on 2026-01-17 16:09:37 by Eclipse SUMO GUI Version 1.24.0
<sumoConfiguration xmlns:xsi="http://www.w3.org/2001/XMLSchema-instance" xsi:noNamespaceSchemaLocation="http://sumo.dlr.de/xsd/sumoConfiguration.xsd">

    <input>
        <net-file value="C:\Users\yelme\.Intellij\SUMO_GUIFX\sumo\osm.net.xml.gz"/>
        <route-files value="C:\Users\yelme\.Intellij\SUMO_GUIFX\sumo\osm.passenger.trips.xml"/>
        <additional-files value="C:\Users\yelme\.Intellij\SUMO_GUIFX\sumo\osm.poly.xml.gz,C:\Users\yelme\.Intellij\SUMO_GUIFX\sumo\output.add.xml"/>
    </input>

    <output>
        <tripinfo-output value="C:\Users\yelme\.Intellij\SUMO_GUIFX\sumo\tripinfos.xml"/>
        <statistic-output value="C:\Users\yelme\.Intellij\SUMO_GUIFX\sumo\stats.xml"/>
    </output>

    <processing>
        <ignore-route-errors value="true"/>
        <tls.actuated.jam-threshold value="30"/>
    </processing>

    <routing>
        <device.rerouting.adaptation-steps value="18"/>
        <device.rerouting.adaptation-interval value="10"/>
    </routing>

    <report>
        <verbose value="true"/>
        <duration-log.statistics value="true"/>
        <no-step-log value="true"/>
    </report>

    <traci_server>
        <remote-port value="64151"/>
    </traci_server>

    <gui_only>
        <gui-settings-file value="C:\Users\yelme\.Intellij\SUMO_GUIFX\sumo\osm.view.xml"/>
        <quit-on-end value="false"/>
        <start value="true"/>
        <delay value="50"/>
    </gui_only>

</sumoConfiguration>
-->

<meandata xmlns:xsi="http://www.w3.org/2001/XMLSchema-instance" xsi:noNamespaceSchemaLocation="http://sumo.dlr.de/xsd/meandata_file.xsd">
    <interval begin="0.00" end="1725.00" id="wizard_example">
        <edge id="-1000804075#0" sampledSeconds="0.00" departed="0" arrived="0" entered="0" left="0" laneChangedFrom="0" laneChangedTo="0"/>
        <edge id="-1000804075#1" sampledSeconds="0.00" departed="0" arrived="0" entered="0" left="0" laneChangedFrom="0" laneChangedTo="0"/>
        <edge id="-1000905151#0" sampledSeconds="0.00" departed="0" arrived="0" entered="0" left="0" laneChangedFrom="0" laneChangedTo="0"/>
        <edge id="-1000905151#1" sampledSeconds="0.00" departed="0" arrived="0" entered="0" left="0" laneChangedFrom="0" laneChangedTo="0"/>
        <edge id="-1001433175" sampledSeconds="0.00" departed="0" arrived="0" entered="0" left="0" laneChangedFrom="0" laneChangedTo="0"/>
        <edge id="-1001433176" sampledSeconds="0.00" departed="0" arrived="0" entered="0" left="0" laneChangedFrom="0" laneChangedTo="0"/>
        <edge id="-1001433179" sampledSeconds="0.00" departed="0" arrived="0" entered="0" left="0" laneChangedFrom="0" laneChangedTo="0"/>
        <edge id="-1001433180" sampledSeconds="0.00" departed="0" arrived="0" entered="0" left="0" laneChangedFrom="0" laneChangedTo="0"/>
        <edge id="-1001433181" sampledSeconds="0.00" departed="0" arrived="0" entered="0" left="0" laneChangedFrom="0" laneChangedTo="0"/>
        <edge id="-1007121658#1" sampledSeconds="0.00" departed="0" arrived="0" entered="0" left="0" laneChangedFrom="0" laneChangedTo="0"/>
        <edge id="-1021922636" sampledSeconds="15.69" traveltime="0.50" overlapTraveltime="1.25" density="2.48" laneDensity="2.48" occupancy="0.54" waitingTime="0.00" timeLoss="2.17" speed="6.95" speedRelative="0.83" departed="1" arrived="0" entered="12" left="13" laneChangedFrom="0" laneChangedTo="0"/>
        <edge id="-10498488" sampledSeconds="0.00" departed="0" arrived="0" entered="0" left="0" laneChangedFrom="0" laneChangedTo="0"/>
        <edge id="-107957757#0" sampledSeconds="6.25" traveltime="2.59" overlapTraveltime="3.66" density="0.29" laneDensity="0.29" occupancy="0.11" waitingTime="0.00" timeLoss="2.47" speed="4.74" speedRelative="0.57" departed="1" arrived="0" entered="1" left="2" laneChangedFrom="0" laneChangedTo="0"/>
        <edge id="-107957757#1" sampledSeconds="1.93" traveltime="1.34" overlapTraveltime="1.93" density="0.10" laneDensity="0.10" occupancy="0.03" waitingTime="0.00" timeLoss="0.13" speed="8.62" speedRelative="1.04" departed="0" arrived="0" entered="1" left="1" laneChangedFrom="0" laneChangedTo="0"/>
        <edge id="-107957757#2" sampledSeconds="20.23" traveltime="9.24" overlapTraveltime="10.49" density="0.18" laneDensity="0.18" occupancy="0.08" waitingTime="0.00" timeLoss="3.88" speed="6.83" speedRelative="0.82" departed="1" arrived="0" entered="1" left="2" laneChangedFrom="0" laneChangedTo="0"/>
        <edge id="-1079661290" sampledSeconds="0.00" departed="0" arrived="0" entered="0" left="0" laneChangedFrom="0" laneChangedTo="0"/>
        <edge id="-1081646218#0" sampledSeconds="148.18" traveltime="8.05" overlapTraveltime="8.72" density="2.11" laneDensity="2.11" occupancy="0.98" waitingTime="49.00" timeLoss="58.10" speed="5.24" speedRelative="0.63" departed="0" arrived="0" entered="17" left="17" laneChangedFrom="0" laneChangedTo="0"/>
        <edge id="-1081646218#1" sampledSeconds="284.94" traveltime="16.17" overlapTraveltime="16.80" density="1.29" laneDensity="1.29" occupancy="0.62" waitingTime="0.00" timeLoss="22.62" speed="7.93" speedRelative="0.95" departed="1" arrived="0" entered="16" left="17" laneChangedFrom="0" laneChangedTo="0"/>
        <edge id="-1081646218#2" sampledSeconds="19.35" traveltime="0.93" overlapTraveltime="1.61" density="2.01" laneDensity="2.01" occupancy="0.52" waitingTime="0.00" timeLoss="5.03" speed="6.56" speedRelative="0.79" departed="0" arrived="0" entered="12" left="12" laneChangedFrom="0" laneChangedTo="0"/>
        <edge id="-1081646218#3" sampledSeconds="17.13" traveltime="0.70" overlapTraveltime="1.49" density="1.89" laneDensity="1.89" occupancy="0.48" waitingTime="0.00" timeLoss="3.82" speed="6.88" speedRelative="0.83" departed="1" arrived="0" entered="11" left="12" laneChangedFrom="0" laneChangedTo="0"/>
        <edge id="-1081647938" sampledSeconds="3.44" traveltime="0.14" overlapTraveltime="0.86" density="2.00" laneDensity="2.00" occupancy="0.17" waitingTime="0.00" timeLoss="0.56" speed="6.97" speedRelative="0.84" departed="0" arrived="0" entered="4" left="4" laneChangedFrom="0" laneChangedTo="0"/>
        <edge id="-1081648321" sampledSeconds="0.00" departed="0" arrived="0" entered="0" left="0" laneChangedFrom="0" laneChangedTo="0"/>
        <edge id="-1081679730#0" sampledSeconds="0.00" departed="0" arrived="0" entered="0" left="0" laneChangedFrom="0" laneChangedTo="0"/>
        <edge id="-1081679730#1" sampledSeconds="0.00" departed="0" arrived="0" entered="0" left="0" laneChangedFrom="0" laneChangedTo="0"/>
        <edge id="-1086288318#0" sampledSeconds="0.00" departed="0" arrived="0" entered="0" left="0" laneChangedFrom="0" laneChangedTo="0"/>
        <edge id="-1086289480#0" sampledSeconds="0.00" departed="0" arrived="0" entered="0" left="0" laneChangedFrom="0" laneChangedTo="0"/>
        <edge id="-1086289480#2" sampledSeconds="0.00" departed="0" arrived="0" entered="0" left="0" laneChangedFrom="0" laneChangedTo="0"/>
        <edge id="-1086450112#0" sampledSeconds="0.00" departed="0" arrived="0" entered="0" left="0" laneChangedFrom="0" laneChangedTo="0"/>
        <edge id="-1086450112#1" sampledSeconds="0.00" departed="0" arrived="0" entered="0" left="0" laneChangedFrom="0" laneChangedTo="0"/>
        <edge id="-1087270700#0" sampledSeconds="0.00" departed="0" arrived="0" entered="0" left="0" laneChangedFrom="0" laneChangedTo="0"/>
        <edge id="-1087270700#1" sampledSeconds="0.00" departed="0" arrived="0" entered="0" left="0" laneChangedFrom="0" laneChangedTo="0"/>
        <edge id="-1093566176" sampledSeconds="0.00" departed="0" arrived="0" entered="0" left="0" laneChangedFrom="0" laneChangedTo="0"/>
        <edge id="-1098307272" sampledSeconds="0.00" departed="0" arrived="0" entered="0" left="0" laneChangedFrom="0" laneChangedTo="0"/>
        <edge id="-1099721720" sampledSeconds="0.00" departed="0" arrived="0" entered="0" left="0" laneChangedFrom="0" laneChangedTo="0"/>
        <edge id="-1104924924" sampledSeconds="0.00" departed="0" arrived="0" entered="0" left="0" laneChangedFrom="0" laneChangedTo="0"/>
        <edge id="-1107323962" sampledSeconds="0.00" departed="0" arrived="0" entered="0" left="0" laneChangedFrom="0" laneChangedTo="0"/>
        <edge id="-1107722606" sampledSeconds="0.00" departed="0" arrived="0" entered="0" left="0" laneChangedFrom="0" laneChangedTo="0"/>
        <edge id="-1107929245" sampledSeconds="0.00" departed="0" arrived="0" entered="0" left="0" laneChangedFrom="0" laneChangedTo="0"/>
        <edge id="-1107980416" sampledSeconds="0.00" departed="0" arrived="0" entered="0" left="0" laneChangedFrom="0" laneChangedTo="0"/>
        <edge id="-1118459620" sampledSeconds="0.00" departed="0" arrived="0" entered="0" left="0" laneChangedFrom="0" laneChangedTo="0"/>
        <edge id="-1126551277#0" sampledSeconds="0.00" departed="0" arrived="0" entered="0" left="0" laneChangedFrom="0" laneChangedTo="0"/>
        <edge id="-1126551277#1" sampledSeconds="0.00" departed="0" arrived="0" entered="0" left="0" laneChangedFrom="0" laneChangedTo="0"/>
        <edge id="-1127308975" sampledSeconds="0.00" departed="0" arrived="0" entered="0" left="0" laneChangedFrom="0" laneChangedTo="0"/>
        <edge id="-1127360108#1" sampledSeconds="24.47" traveltime="1.37" overlapTraveltime="2.04" density="1.47" laneDensity="1.47" occupancy="0.48" waitingTime="0.00" timeLoss="2.51" speed="7.17" speedRelative="0.86" departed="0" arrived="0" entered="12" left="12" laneChangedFrom="0" laneChangedTo="0"/>
        <edge id="-1127360108#3" sampledSeconds="57.63" traveltime="3.76" overlapTraveltime="4.80" density="2.55" laneDensity="2.55" occupancy="1.05" waitingTime="7.00" timeLoss="30.48" speed="3.76" speedRelative="0.45" departed="0" arrived="0" entered="12" left="12" laneChangedFrom="0" laneChangedTo="0"/>
        <edge id="-1127360109" sampledSeconds="18.35" traveltime="0.73" overlapTraveltime="1.41" density="1.98" laneDensity="1.98" occupancy="0.51" waitingTime="0.00" timeLoss="1.56" speed="7.34" speedRelative="0.88" departed="0" arrived="0" entered="13" left="13" laneChangedFrom="0" laneChangedTo="0"/>
        <edge id="-1150163951" sampledSeconds="81.53" traveltime="3.13" overlapTraveltime="3.55" density="1.15" laneDensity="0.38" occupancy="0.17" waitingTime="0.00" timeLoss="5.15" speed="12.95" speedRelative="0.93" departed="0" arrived="2" entered="23" left="21" laneChangedFrom="2" laneChangedTo="2"/>
        <edge id="-1156123812#0" sampledSeconds="0.00" departed="0" arrived="0" entered="0" left="0" laneChangedFrom="0" laneChangedTo="0"/>
        <edge id="-1156123813#0" sampledSeconds="0.00" departed="0" arrived="0" entered="0" left="0" laneChangedFrom="0" laneChangedTo="0"/>
        <edge id="-1156123813#1" sampledSeconds="0.00" departed="0" arrived="0" entered="0" left="0" laneChangedFrom="0" laneChangedTo="0"/>
        <edge id="-1157218232" sampledSeconds="7.66" traveltime="3.21" overlapTraveltime="3.83" density="0.19" laneDensity="0.19" occupancy="0.08" waitingTime="0.00" timeLoss="1.02" speed="7.29" speedRelative="0.87" departed="0" arrived="0" entered="2" left="2" laneChangedFrom="0" laneChangedTo="0"/>
        <edge id="-1157218234#0" sampledSeconds="7.53" traveltime="0.03" overlapTraveltime="0.84" density="21.83" laneDensity="21.83" occupancy="0.42" waitingTime="0.00" timeLoss="1.95" speed="6.19" speedRelative="0.74" departed="1" arrived="0" entered="8" left="9" laneChangedFrom="0" laneChangedTo="0"/>
        <edge id="-1157218234#1" sampledSeconds="11.29" traveltime="0.62" overlapTraveltime="1.28" density="1.41" laneDensity="1.41" occupancy="0.34" waitingTime="0.00" timeLoss="1.10" speed="7.57" speedRelative="0.91" departed="0" arrived="1" entered="9" left="8" laneChangedFrom="0" laneChangedTo="0"/>
        <edge id="-1157218234#2" sampledSeconds="47.63" traveltime="4.64" overlapTraveltime="5.29" density="0.76" laneDensity="0.76" occupancy="0.33" waitingTime="0.00" timeLoss="3.34" speed="7.79" speedRelative="0.94" departed="0" arrived="0" entered="9" left="9" laneChangedFrom="0" laneChangedTo="0"/>
        <edge id="-1157218234#3" sampledSeconds="52.75" traveltime="5.22" overlapTraveltime="5.86" density="0.75" laneDensity="0.75" occupancy="0.34" waitingTime="0.00" timeLoss="3.83" speed="7.77" speedRelative="0.93" departed="0" arrived="0" entered="9" left="9" laneChangedFrom="0" laneChangedTo="0"/>
        <edge id="-1157218234#4" sampledSeconds="20.68" traveltime="1.70" overlapTraveltime="2.38" density="1.08" laneDensity="1.08" occupancy="0.38" waitingTime="0.00" timeLoss="4.04" speed="6.76" speedRelative="0.81" departed="1" arrived="0" entered="8" left="9" laneChangedFrom="0" laneChangedTo="0"/>
        <edge id="-1157218235" sampledSeconds="21.17" traveltime="10.04" overlapTraveltime="11.30" density="0.18" laneDensity="0.18" occupancy="0.08" waitingTime="0.00" timeLoss="3.82" speed="6.64" speedRelative="0.80" departed="1" arrived="1" entered="1" left="1" laneChangedFrom="0" laneChangedTo="0"/>
        <edge id="-116327957#0" sampledSeconds="0.00" departed="0" arrived="0" entered="0" left="0" laneChangedFrom="0" laneChangedTo="0"/>
        <edge id="-1174626940" sampledSeconds="0.00" departed="0" arrived="0" entered="0" left="0" laneChangedFrom="0" laneChangedTo="0"/>
        <edge id="-1174626942" sampledSeconds="0.00" departed="0" arrived="0" entered="0" left="0" laneChangedFrom="0" laneChangedTo="0"/>
        <edge id="-1174626946#0" sampledSeconds="0.00" departed="0" arrived="0" entered="0" left="0" laneChangedFrom="0" laneChangedTo="0"/>
        <edge id="-1174626946#1" sampledSeconds="0.00" departed="0" arrived="0" entered="0" left="0" laneChangedFrom="0" laneChangedTo="0"/>
        <edge id="-1174626947#0" sampledSeconds="0.00" departed="0" arrived="0" entered="0" left="0" laneChangedFrom="0" laneChangedTo="0"/>
        <edge id="-1174626947#1" sampledSeconds="0.00" departed="0" arrived="0" entered="0" left="0" laneChangedFrom="0" laneChangedTo="0"/>
        <edge id="-1174626979#0" sampledSeconds="0.00" departed="0" arrived="0" entered="0" left="0" laneChangedFrom="0" laneChangedTo="0"/>
        <edge id="-1174626979#1" sampledSeconds="0.00" departed="0" arrived="0" entered="0" left="0" laneChangedFrom="0" laneChangedTo="0"/>
        <edge id="-1174626981#0" sampledSeconds="0.00" departed="0" arrived="0" entered="0" left="0" laneChangedFrom="0" laneChangedTo="0"/>
        <edge id="-1174626981#1" sampledSeconds="0.00" departed="0" arrived="0" entered="0" left="0" laneChangedFrom="0" laneChangedTo="0"/>
        <edge id="-1178602671" sampledSeconds="216.30" traveltime="11.31" overlapTraveltime="12.02" density="1.48" laneDensity="1.48" occupancy="0.69" waitingTime="0.00" timeLoss="23.63" speed="7.47" speedRelative="0.90" departed="0" arrived="0" entered="18" left="18" laneChangedFrom="0" laneChangedTo="0"/>
        <edge id="-1180983895" sampledSeconds="19.56" traveltime="4.30" overlapTraveltime="6.52" density="1.26" laneDensity="1.26" occupancy="0.39" waitingTime="0.00" timeLoss="4.74" speed="2.15" speedRelative="0.77" departed="0" arrived="0" entered="3" left="3" laneChangedFrom="0" laneChangedTo="0"/>
        <edge id="-1181825285#0" sampledSeconds="5.84" traveltime="5.45" overlapTraveltime="5.84" density="0.05" laneDensity="0.03" occupancy="0.01" waitingTime="0.00" timeLoss="0.42" speed="12.44" speedRelative="0.90" departed="0" arrived="1" entered="1" left="0" laneChangedFrom="0" laneChangedTo="0"/>
        <edge id="-1192943711" sampledSeconds="11.91" traveltime="14.20" overlapTraveltime="15.02" density="0.35" laneDensity="0.35" occupancy="0.17" waitingTime="7.00" timeLoss="10.33" speed="1.64" speedRelative="0.12" departed="1" arrived="0" entered="0" left="1" laneChangedFrom="0" laneChangedTo="0"/>
        <edge id="-1194042864#1" sampledSeconds="0.00" departed="0" arrived="0" entered="0" left="0" laneChangedFrom="0" laneChangedTo="0"/>
        <edge id="-1205914284#0" sampledSeconds="15.29" traveltime="3.01" overlapTraveltime="4.08" density="0.57" laneDensity="0.57" occupancy="0.23" waitingTime="0.00" timeLoss="4.96" speed="5.03" speedRelative="0.60" departed="1" arrived="0" entered="3" left="4" laneChangedFrom="0" laneChangedTo="0"/>
        <edge id="-1210430416#1" sampledSeconds="61.76" traveltime="2.50" overlapTraveltime="3.43" density="4.39" laneDensity="4.39" occupancy="1.66" waitingTime="12.00" timeLoss="44.01" speed="3.83" speedRelative="0.28" departed="0" arrived="0" entered="18" left="18" laneChangedFrom="0" laneChangedTo="0"/>
        <edge id="-1210556406" sampledSeconds="0.00" departed="0" arrived="0" entered="0" left="0" laneChangedFrom="0" laneChangedTo="0"/>
        <edge id="-1211145372#0" sampledSeconds="3.53" traveltime="0.13" overlapTraveltime="1.24" density="2.30" laneDensity="2.30" occupancy="0.18" waitingTime="0.00" timeLoss="1.40" speed="4.76" speedRelative="0.57" departed="1" arrived="0" entered="2" left="3" laneChangedFrom="0" laneChangedTo="0"/>
        <edge id="-1211145372#1" sampledSeconds="18.06" traveltime="8.33" overlapTraveltime="9.03" density="0.17" laneDensity="0.17" occupancy="0.08" waitingTime="0.00" timeLoss="1.51" speed="7.34" speedRelative="0.88" departed="0" arrived="0" entered="2" left="2" laneChangedFrom="0" laneChangedTo="0"/>
        <edge id="-1211145372#2" sampledSeconds="4.82" traveltime="1.77" overlapTraveltime="2.41" density="0.22" laneDensity="0.22" occupancy="0.08" waitingTime="0.00" timeLoss="0.45" speed="7.26" speedRelative="0.87" departed="0" arrived="0" entered="2" left="2" laneChangedFrom="0" laneChangedTo="0"/>
        <edge id="-1212525427" sampledSeconds="0.00" departed="0" arrived="0" entered="0" left="0" laneChangedFrom="0" laneChangedTo="0"/>
        <edge id="-1212546373#1" sampledSeconds="9.46" traveltime="0.05" overlapTraveltime="0.86" density="18.27" laneDensity="18.27" occupancy="0.52" waitingTime="0.00" timeLoss="2.28" speed="6.17" speedRelative="0.74" departed="0" arrived="0" entered="11" left="11" laneChangedFrom="0" laneChangedTo="0"/>
        <edge id="-1212766944" sampledSeconds="0.00" departed="0" arrived="0" entered="0" left="0" laneChangedFrom="0" laneChangedTo="0"/>
        <edge id="-1212766945" sampledSeconds="0.00" departed="0" arrived="0" entered="0" left="0" laneChangedFrom="0" laneChangedTo="0"/>
        <edge id="-1216189012" sampledSeconds="0.00" departed="0" arrived="0" entered="0" left="0" laneChangedFrom="0" laneChangedTo="0"/>
        <edge id="-1245858892" sampledSeconds="0.00" departed="0" arrived="0" entered="0" left="0" laneChangedFrom="0" laneChangedTo="0"/>
        <edge id="-1245858893" sampledSeconds="0.00" departed="0" arrived="0" entered="0" left="0" laneChangedFrom="0" laneChangedTo="0"/>
        <edge id="-1246854348" sampledSeconds="0.00" departed="0" arrived="0" entered="0" left="0" laneChangedFrom="0" laneChangedTo="0"/>
        <edge id="-1251349491" sampledSeconds="0.00" departed="0" arrived="0" entered="0" left="0" laneChangedFrom="0" laneChangedTo="0"/>
        <edge id="-1251349492#0" sampledSeconds="0.00" departed="0" arrived="0" entered="0" left="0" laneChangedFrom="0" laneChangedTo="0"/>
        <edge id="-1251349492#1" sampledSeconds="0.00" departed="0" arrived="0" entered="0" left="0" laneChangedFrom="0" laneChangedTo="0"/>
        <edge id="-1255988377#0" sampledSeconds="51.29" traveltime="15.34" overlapTraveltime="17.72" density="0.90" laneDensity="0.90" occupancy="0.40" waitingTime="0.00" timeLoss="12.55" speed="2.15" speedRelative="0.77" departed="0" arrived="1" entered="3" left="2" laneChangedFrom="0" laneChangedTo="0"/>
        <edge id="-1256907219#0" sampledSeconds="0.00" departed="0" arrived="0" entered="0" left="0" laneChangedFrom="0" laneChangedTo="0"/>
        <edge id="-1256907219#1" sampledSeconds="0.00" departed="0" arrived="0" entered="0" left="0" laneChangedFrom="0" laneChangedTo="0"/>
        <edge id="-1257757586" sampledSeconds="76.24" traveltime="75.77" overlapTraveltime="78.27" density="0.29" laneDensity="0.29" occupancy="0.14" waitingTime="0.00" timeLoss="19.24" speed="2.03" speedRelative="0.73" departed="0" arrived="1" entered="1" left="0" laneChangedFrom="0" laneChangedTo="0"/>
        <edge id="-1257758359" sampledSeconds="0.00" departed="0" arrived="0" entered="0" left="0" laneChangedFrom="0" laneChangedTo="0"/>
        <edge id="-1267335226" sampledSeconds="3.65" traveltime="0.05" overlapTraveltime="0.91" density="8.81" laneDensity="8.81" occupancy="0.20" waitingTime="0.00" timeLoss="0.93" speed="5.75" speedRelative="0.69" departed="0" arrived="0" entered="4" left="4" laneChangedFrom="0" laneChangedTo="0"/>
        <edge id="-1275409856" sampledSeconds="0.00" departed="0" arrived="0" entered="0" left="0" laneChangedFrom="0" laneChangedTo="0"/>
        <edge id="-1275409857" sampledSeconds="0.00" departed="0" arrived="0" entered="0" left="0" laneChangedFrom="0" laneChangedTo="0"/>
        <edge id="-1276634264" sampledSeconds="0.00" departed="0" arrived="0" entered="0" left="0" laneChangedFrom="0" laneChangedTo="0"/>
        <edge id="-1276634266#0" sampledSeconds="0.00" departed="0" arrived="0" entered="0" left="0" laneChangedFrom="0" laneChangedTo="0"/>
        <edge id="-1276634266#1" sampledSeconds="0.00" departed="0" arrived="0" entered="0" left="0" laneChangedFrom="0" laneChangedTo="0"/>
        <edge id="-1276634266#4" sampledSeconds="0.00" departed="0" arrived="0" entered="0" left="0" laneChangedFrom="0" laneChangedTo="0"/>
        <edge id="-1277672060#0" sampledSeconds="0.00" departed="0" arrived="0" entered="0" left="0" laneChangedFrom="0" laneChangedTo="0"/>
        <edge id="-1277672060#1" sampledSeconds="0.00" departed="0" arrived="0" entered="0" left="0" laneChangedFrom="0" laneChangedTo="0"/>
        <edge id="-1277672060#2" sampledSeconds="0.00" departed="0" arrived="0" entered="0" left="0" laneChangedFrom="0" laneChangedTo="0"/>
        <edge id="-1277859014#1" sampledSeconds="0.00" departed="0" arrived="0" entered="0" left="0" laneChangedFrom="0" laneChangedTo="0"/>
        <edge id="-1277859014#2" sampledSeconds="0.00" departed="0" arrived="0" entered="0" left="0" laneChangedFrom="0" laneChangedTo="0"/>
        <edge id="-1277859015#0" sampledSeconds="0.00" departed="0" arrived="0" entered="0" left="0" laneChangedFrom="0" laneChangedTo="0"/>
        <edge id="-1277859015#1" sampledSeconds="0.00" departed="0" arrived="0" entered="0" left="0" laneChangedFrom="0" laneChangedTo="0"/>
        <edge id="-1277935056" sampledSeconds="0.00" departed="0" arrived="0" entered="0" left="0" laneChangedFrom="0" laneChangedTo="0"/>
        <edge id="-1277935058" sampledSeconds="0.00" departed="0" arrived="0" entered="0" left="0" laneChangedFrom="0" laneChangedTo="0"/>
        <edge id="-1277935059" sampledSeconds="0.00" departed="0" arrived="0" entered="0" left="0" laneChangedFrom="0" laneChangedTo="0"/>
        <edge id="-1277935060" sampledSeconds="0.00" departed="0" arrived="0" entered="0" left="0" laneChangedFrom="0" laneChangedTo="0"/>
        <edge id="-1277935061" sampledSeconds="0.00" departed="0" arrived="0" entered="0" left="0" laneChangedFrom="0" laneChangedTo="0"/>
        <edge id="-1277935063" sampledSeconds="0.00" departed="0" arrived="0" entered="0" left="0" laneChangedFrom="0" laneChangedTo="0"/>
        <edge id="-1277935064" sampledSeconds="0.00" departed="0" arrived="0" entered="0" left="0" laneChangedFrom="0" laneChangedTo="0"/>
        <edge id="-1277935065#0" sampledSeconds="0.00" departed="0" arrived="0" entered="0" left="0" laneChangedFrom="0" laneChangedTo="0"/>
        <edge id="-1277935065#1" sampledSeconds="0.00" departed="0" arrived="0" entered="0" left="0" laneChangedFrom="0" laneChangedTo="0"/>
        <edge id="-1277935066#0" sampledSeconds="0.00" departed="0" arrived="0" entered="0" left="0" laneChangedFrom="0" laneChangedTo="0"/>
        <edge id="-1277935068" sampledSeconds="0.00" departed="0" arrived="0" entered="0" left="0" laneChangedFrom="0" laneChangedTo="0"/>
        <edge id="-1277935071" sampledSeconds="0.00" departed="0" arrived="0" entered="0" left="0" laneChangedFrom="0" laneChangedTo="0"/>
        <edge id="-1277935072" sampledSeconds="0.00" departed="0" arrived="0" entered="0" left="0" laneChangedFrom="0" laneChangedTo="0"/>
        <edge id="-1277935074" sampledSeconds="0.00" departed="0" arrived="0" entered="0" left="0" laneChangedFrom="0" laneChangedTo="0"/>
        <edge id="-1277935075" sampledSeconds="0.00" departed="0" arrived="0" entered="0" left="0" laneChangedFrom="0" laneChangedTo="0"/>
        <edge id="-1277935076" sampledSeconds="0.00" departed="0" arrived="0" entered="0" left="0" laneChangedFrom="0" laneChangedTo="0"/>
        <edge id="-1277935078" sampledSeconds="0.00" departed="0" arrived="0" entered="0" left="0" laneChangedFrom="0" laneChangedTo="0"/>
        <edge id="-1277935080" sampledSeconds="0.00" departed="0" arrived="0" entered="0" left="0" laneChangedFrom="0" laneChangedTo="0"/>
        <edge id="-1277945614" sampledSeconds="0.00" departed="0" arrived="0" entered="0" left="0" laneChangedFrom="0" laneChangedTo="0"/>
        <edge id="-1277945615" sampledSeconds="0.00" departed="0" arrived="0" entered="0" left="0" laneChangedFrom="0" laneChangedTo="0"/>
        <edge id="-1277949555" sampledSeconds="0.00" departed="0" arrived="0" entered="0" left="0" laneChangedFrom="0" laneChangedTo="0"/>
        <edge id="-1277949557" sampledSeconds="0.00" departed="0" arrived="0" entered="0" left="0" laneChangedFrom="0" laneChangedTo="0"/>
        <edge id="-1278890189" sampledSeconds="0.00" departed="0" arrived="0" entered="0" left="0" laneChangedFrom="0" laneChangedTo="0"/>
        <edge id="-1278890190" sampledSeconds="0.00" departed="0" arrived="0" entered="0" left="0" laneChangedFrom="0" laneChangedTo="0"/>
        <edge id="-1279349509#0" sampledSeconds="0.00" departed="0" arrived="0" entered="0" left="0" laneChangedFrom="0" laneChangedTo="0"/>
        <edge id="-1279349509#1" sampledSeconds="0.00" departed="0" arrived="0" entered="0" left="0" laneChangedFrom="0" laneChangedTo="0"/>
        <edge id="-1279349511" sampledSeconds="0.00" departed="0" arrived="0" entered="0" left="0" laneChangedFrom="0" laneChangedTo="0"/>
        <edge id="-1279349512" sampledSeconds="0.00" departed="0" arrived="0" entered="0" left="0" laneChangedFrom="0" laneChangedTo="0"/>
        <edge id="-1279349518" sampledSeconds="0.00" departed="0" arrived="0" entered="0" left="0" laneChangedFrom="0" laneChangedTo="0"/>
        <edge id="-1279349519" sampledSeconds="0.00" departed="0" arrived="0" entered="0" left="0" laneChangedFrom="0" laneChangedTo="0"/>
        <edge id="-1279349520" sampledSeconds="0.00" departed="0" arrived="0" entered="0" left="0" laneChangedFrom="0" laneChangedTo="0"/>
        <edge id="-1281173946" sampledSeconds="0.00" departed="0" arrived="0" entered="0" left="0" laneChangedFrom="0" laneChangedTo="0"/>
        <edge id="-1287374897" sampledSeconds="72.67" traveltime="13.84" overlapTraveltime="14.53" density="0.41" laneDensity="0.41" occupancy="0.20" waitingTime="0.00" timeLoss="6.11" speed="7.34" speedRelative="0.88" departed="0" arrived="0" entered="5" left="5" laneChangedFrom="0" laneChangedTo="0"/>
        <edge id="-1287702025" sampledSeconds="63.79" traveltime="62.18" overlapTraveltime="63.79" density="0.57" laneDensity="0.57" occupancy="0.28" waitingTime="51.00" timeLoss="55.95" speed="1.10" speedRelative="0.13" departed="0" arrived="0" entered="1" left="1" laneChangedFrom="0" laneChangedTo="0"/>
        <edge id="-1288875212" sampledSeconds="0.00" departed="0" arrived="0" entered="0" left="0" laneChangedFrom="0" laneChangedTo="0"/>
        <edge id="-1288875214#0" sampledSeconds="0.00" departed="0" arrived="0" entered="0" left="0" laneChangedFrom="0" laneChangedTo="0"/>
        <edge id="-1288875214#1" sampledSeconds="0.00" departed="0" arrived="0" entered="0" left="0" laneChangedFrom="0" laneChangedTo="0"/>
        <edge id="-1288875214#2" sampledSeconds="0.00" departed="0" arrived="0" entered="0" left="0" laneChangedFrom="0" laneChangedTo="0"/>
        <edge id="-1288875219" sampledSeconds="0.00" departed="0" arrived="0" entered="0" left="0" laneChangedFrom="0" laneChangedTo="0"/>
        <edge id="-1288875221" sampledSeconds="0.00" departed="0" arrived="0" entered="0" left="0" laneChangedFrom="0" laneChangedTo="0"/>
        <edge id="-1292347198#1" sampledSeconds="301.63" traveltime="36.13" overlapTraveltime="32.32" density="69.67" laneDensity="69.67" occupancy="12.18" waitingTime="278.00" timeLoss="293.07" speed="0.23" speedRelative="0.03" departed="2" arrived="0" entered="8" left="10" laneChangedFrom="0" laneChangedTo="0"/>
        <edge id="-1292347198#2" sampledSeconds="280.89" traveltime="27.88" overlapTraveltime="35.11" density="2.61" laneDensity="2.61" occupancy="1.15" waitingTime="199.00" timeLoss="215.79" speed="1.92" speedRelative="0.23" departed="0" arrived="0" entered="8" left="8" laneChangedFrom="0" laneChangedTo="0"/>
        <edge id="-1292347198#3" sampledSeconds="85.32" traveltime="7.89" overlapTraveltime="8.66" density="0.85" laneDensity="0.85" occupancy="0.39" waitingTime="0.00" timeLoss="8.89" speed="7.27" speedRelative="0.87" departed="1" arrived="1" entered="9" left="9" laneChangedFrom="0" laneChangedTo="0"/>
        <edge id="-1292348654" sampledSeconds="209.78" traveltime="8.42" overlapTraveltime="9.14" density="1.98" laneDensity="1.98" occupancy="0.91" waitingTime="0.00" timeLoss="21.79" speed="7.26" speedRelative="0.87" departed="0" arrived="2" entered="23" left="21" laneChangedFrom="0" laneChangedTo="0"/>
        <edge id="-1294568743#0" sampledSeconds="0.00" departed="0" arrived="0" entered="0" left="0" laneChangedFrom="0" laneChangedTo="0"/>