<?xml version="1.0" encoding="UTF-8"?>

<!-- generated on 2026-01-17 16:09:36 by Eclipse SUMO GUI Version 1.24.0
<sumoConfiguration xmlns:xsi="http://www.w3.org/2001/XMLSchema-instance" xsi:noNamespaceSchemaLocation="http://sumo.dlr.de/xsd/sumoConfiguration.xsd">

    <input>
        <net-file value="C:\Users\yelme\.Intellij\SUMO_GUIFX\sumo\osm.net.xml.gz"/>
        <route-files value="C:\Users\yelme\.Intellij\SUMO_GUIFX\sumo\osm.passenger.trips.xml"/>
        <additional-files value="C:\Users\yelme\.Intellij\SUMO_GUIFX\sumo\osm.poly.xml.gz,C:\Users\yelme\.Intellij\SUMO_GUIFX\sumo\output.add.xml"/>
    </input>

    <output>
        <tripinfo-output value="C:\Users\yelme\.Intellij\SUMO_GUIFX\sumo\tripinfos.xml"/>
        <statistic-output value="C:\Users\yelme\.Intellij\SUMO_GUIFX\sumo\stats.xml"/>
    </output>

    <processing>
        <ignore-route-errors value="true"/>
        <tls.actuated.jam-threshold value="30"/>
    </processing>

    <routing>
        <device.rerouting.adaptation-steps value="18"/>
        <device.rerouting.adaptation-interval value="10"/>
    </routing>

    <report>
        <verbose value="true"/>
        <duration-log.statistics value="true"/>
        <no-step-log value="true"/>
    </report>

    <traci_server>
        <remote-port value="64151"/>
    </traci_server>

    <gui_only>
        <gui-settings-file value="C:\Users\yelme\.Intellij\SUMO_GUIFX\sumo\osm.view.xml"/>
        <quit-on-end value="false"/>
        <start value="true"/>
        <delay value="50"/>
    </gui_only>

</sumoConfiguration>
-->

<tripinfos xmlns:xsi="http://www.w3.org/2001/XMLSchema-instance" xsi:noNamespaceSchemaLocation="http://sumo.dlr.de/xsd/tripinfo_file.xsd">
    <tripinfo id="veh8" depart="25.00" departLane="1150163951_0" departPos="5.10" departSpeed="0.00" departDelay="0.74" arrival="65.00" arrivalLane="314922404#2_0" arrivalPos="16.68" arrivalSpeed="11.81" duration="40.00" routeLength="299.89" waitingTime="6.00" waitingCount="1" stopTime="0.00" timeLoss="16.37" rerouteNo="1" devices="tripinfo_veh8 routing_veh8" vType="veh_passenger" speedFactor="0.94" vaporized=""/>
    <tripinfo id="veh0" depart="0.00" departLane="4220943#0_0" departPos="5.10" departSpeed="0.00" departDelay="0.00" arrival="151.00" arrivalLane="-1292348654_0" arrivalPos="61.35" arrivalSpeed="8.34" duration="151.00" routeLength="1147.65" waitingTime="0.00" waitingCount="0" stopTime="0.00" timeLoss="20.10" rerouteNo="1" devices="tripinfo_veh0 routing_veh0" vType="veh_passenger" speedFactor="1.06" vaporized=""/>
    <tripinfo id="veh18" depart="55.00" departLane="1180983895_0" departPos="5.10" departSpeed="0.00" departDelay="0.41" arrival="174.00" arrivalLane="1318389674#1_0" arrivalPos="0.20" arrivalSpeed="5.69" duration="119.00" routeLength="812.47" waitingTime="0.00" waitingCount="0" stopTime="0.00" timeLoss="11.90" rerouteNo="1" devices="tripinfo_veh18 routing_veh18" vType="veh_passenger" speedFactor="0.94" vaporized=""/>
    <tripinfo id="veh1" depart="4.00" departLane="1300575832#3_0" departPos="5.10" departSpeed="0.00" departDelay="0.97" arrival="176.00" arrivalLane="1211145372#2_0" arrivalPos="12.47" arrivalSpeed="7.59" duration="172.00" routeLength="1265.32" waitingTime="0.00" waitingCount="0" stopTime="0.00" timeLoss="19.86" rerouteNo="1" devices="tripinfo_veh1 routing_veh1" vType="veh_passenger" speedFactor="0.94" vaporized=""/>
    <tripinfo id="veh19" depart="58.00" departLane="4218426#5_1" departPos="5.10" departSpeed="0.00" departDelay="0.38" arrival="186.00" arrivalLane="1413512694#2_0" arrivalPos="44.46" arrivalSpeed="15.94" duration="128.00" routeLength="858.11" waitingTime="42.00" waitingCount="3" stopTime="0.00" timeLoss="73.46" rerouteNo="1" devices="tripinfo_veh19 routing_veh19" vType="veh_passenger" speedFactor="1.16" vaporized=""/>
    <tripinfo id="veh20" depart="61.00" departLane="1292365242#1_0" departPos="5.10" departSpeed="0.00" departDelay="0.35" arrival="217.00" arrivalLane="84657870#0_0" arrivalPos="0.10" arrivalSpeed="14.00" duration="156.00" routeLength="1183.70" waitingTime="37.00" waitingCount="4" stopTime="0.00" timeLoss="67.91" rerouteNo="1" devices="tripinfo_veh20 routing_veh20" vType="veh_passenger" speedFactor="1.02" vaporized=""/>
    <tripinfo id="veh37" depart="113.00" departLane="4824482#0_0" departPos="4.26" departSpeed="0.00" departDelay="0.79" arrival="217.00" arrivalLane="20434455#1_1" arrivalPos="39.03" arrivalSpeed="15.45" duration="104.00" routeLength="960.25" waitingTime="2.00" waitingCount="1" stopTime="0.00" timeLoss="22.15" rerouteNo="1" devices="tripinfo_veh37 routing_veh37" vType="veh_passenger" speedFactor="1.18" vaporized=""/>
    <tripinfo id="veh51" depart="155.00" departLane="-107957757#0_0" departPos="5.10" departSpeed="0.00" departDelay="0.33" arrival="217.00" arrivalLane="138347505#0_0" arrivalPos="32.02" arrivalSpeed="15.59" duration="62.00" routeLength="676.35" waitingTime="1.00" waitingCount="1" stopTime="0.00" timeLoss="13.84" rerouteNo="1" devices="tripinfo_veh51 routing_veh51" vType="veh_passenger" speedFactor="1.17" vaporized=""/>
    <tripinfo id="veh30" depart="91.00" departLane="1292347198#2_0" departPos="5.10" departSpeed="0.00" departDelay="0.02" arrival="228.00" arrivalLane="1287657507#1_0" arrivalPos="0.10" arrivalSpeed="8.80" duration="137.00" routeLength="1011.71" waitingTime="20.00" waitingCount="1" stopTime="0.00" timeLoss="33.67" rerouteNo="1" devices="tripinfo_veh30 routing_veh30" vType="veh_passenger" speedFactor="1.18" vaporized=""/>
    <tripinfo id="veh46" depart="140.00" departLane="558422862_0" departPos="5.10" departSpeed="0.00" departDelay="0.50" arrival="244.00" arrivalLane="1296086936_0" arrivalPos="57.07" arrivalSpeed="8.20" duration="104.00" routeLength="761.62" waitingTime="0.00" waitingCount="0" stopTime="0.00" timeLoss="10.69" rerouteNo="1" devices="tripinfo_veh46 routing_veh46" vType="veh_passenger" speedFactor="1.00" vaporized=""/>
    <tripinfo id="veh35" depart="107.00" departLane="-314922404#2_2" departPos="5.10" departSpeed="0.00" departDelay="0.86" arrival="250.00" arrivalLane="-148931314#1_0" arrivalPos="67.40" arrivalSpeed="13.74" duration="143.00" routeLength="867.25" waitingTime="22.00" waitingCount="1" stopTime="0.00" timeLoss="43.20" rerouteNo="1" devices="tripinfo_veh35 routing_veh35" vType="veh_passenger" speedFactor="1.02" vaporized=""/>
    <tripinfo id="veh17" depart="52.00" departLane="4693852_0" departPos="5.10" departSpeed="0.00" departDelay="0.44" arrival="268.00" arrivalLane="-142519288_0" arrivalPos="71.50" arrivalSpeed="6.73" duration="216.00" routeLength="1673.65" waitingTime="2.00" waitingCount="1" stopTime="0.00" timeLoss="30.76" rerouteNo="1" devices="tripinfo_veh17 routing_veh17" vType="veh_passenger" speedFactor="0.94" vaporized=""/>
    <tripinfo id="veh15" depart="46.00" departLane="142517768#1_0" departPos="5.10" departSpeed="0.00" departDelay="0.51" arrival="279.00" arrivalLane="314789426#0_0" arrivalPos="13.70" arrivalSpeed="11.96" duration="233.00" routeLength="1010.46" waitingTime="109.00" waitingCount="5" stopTime="0.00" timeLoss="135.16" rerouteNo="1" devices="tripinfo_veh15 routing_veh15" vType="veh_passenger" speedFactor="0.93" vaporized=""/>
    <tripinfo id="veh32" depart="98.00" departLane="314910657_2" departPos="5.10" departSpeed="0.00" departDelay="0.95" arrival="294.00" arrivalLane="62788579#2_2" arrivalPos="0.20" arrivalSpeed="10.87" duration="196.00" routeLength="798.78" waitingTime="116.00" waitingCount="2" stopTime="0.00" timeLoss="137.64" rerouteNo="1" devices="tripinfo_veh32 routing_veh32" vType="veh_passenger" speedFactor="1.01" vaporized=""/>
    <tripinfo id="veh_1768662598256" depart="124.00" departLane="4220943#0_0" departPos="10.00" departSpeed="10.00" departDelay="0.00" arrival="295.00" arrivalLane="-1292348654_0" arrivalPos="61.35" arrivalSpeed="9.87" duration="171.00" routeLength="1142.75" waitingTime="22.00" waitingCount="2" stopTime="0.00" timeLoss="55.06" rerouteNo="0" devices="tripinfo_veh_1768662598256" vType="DEFAULT_VEHTYPE" speedFactor="1.20" vaporized=""/>
    <tripinfo id="veh61" depart="185.00" departLane="98638606#0_0" departPos="5.10" departSpeed="0.00" departDelay="0.00" arrival="300.00" arrivalLane="4221362#0_0" arrivalPos="40.94" arrivalSpeed="8.39" duration="115.00" routeLength="891.28" waitingTime="4.00" waitingCount="1" stopTime="0.00" timeLoss="18.41" rerouteNo="1" devices="tripinfo_veh61 routing_veh61" vType="veh_passenger" speedFactor="1.12" vaporized=""/>
    <tripinfo id="veh60" depart="182.00" departLane="1081646218#3_0" departPos="5.10" departSpeed="0.00" departDelay="0.04" arrival="305.00" arrivalLane="1338909490#1_0" arrivalPos="0.20" arrivalSpeed="6.03" duration="123.00" routeLength="667.88" waitingTime="40.00" waitingCount="3" stopTime="0.00" timeLoss="66.64" rerouteNo="1" devices="tripinfo_veh60 routing_veh60" vType="veh_passenger" speedFactor="1.08" vaporized=""/>
    <tripinfo id="veh55" depart="167.00" departLane="-314910654#1_0" departPos="5.10" departSpeed="0.00" departDelay="0.20" arrival="306.00" arrivalLane="265499399#1_0" arrivalPos="66.69" arrivalSpeed="13.25" duration="139.00" routeLength="980.06" waitingTime="29.00" waitingCount="2" stopTime="0.00" timeLoss="45.06" rerouteNo="1" devices="tripinfo_veh55 routing_veh55" vType="veh_passenger" speedFactor="1.00" vaporized=""/>
    <tripinfo id="veh38" depart="116.00" departLane="-260923013#1_0" departPos="5.10" departSpeed="3.06" departDelay="0.76" arrival="317.00" arrivalLane="1461274721#1_0" arrivalPos="21.04" arrivalSpeed="8.63" duration="201.00" routeLength="1243.86" waitingTime="50.00" waitingCount="1" stopTime="0.00" timeLoss="79.19" rerouteNo="1" devices="tripinfo_veh38 routing_veh38" vType="veh_passenger" speedFactor="1.10" vaporized=""/>
    <tripinfo id="veh66" depart="201.00" departLane="852060633#1_0" departPos="5.10" departSpeed="0.00" departDelay="0.84" arrival="317.00" arrivalLane="314910652#0_0" arrivalPos="32.04" arrivalSpeed="12.55" duration="116.00" routeLength="866.57" waitingTime="7.00" waitingCount="1" stopTime="0.00" timeLoss="21.38" rerouteNo="1" devices="tripinfo_veh66 routing_veh66" vType="veh_passenger" speedFactor="0.91" vaporized=""/>
    <tripinfo id="veh40" depart="122.00" departLane="949282470#0_0" departPos="5.10" departSpeed="2.86" departDelay="0.69" arrival="327.00" arrivalLane="4850354#2_0" arrivalPos="45.29" arrivalSpeed="7.56" duration="205.00" routeLength="1145.85" waitingTime="5.00" waitingCount="2" stopTime="0.00" timeLoss="43.76" rerouteNo="1" devices="tripinfo_veh40 routing_veh40" vType="veh_passenger" speedFactor="1.03" vaporized=""/>
    <tripinfo id="veh63" depart="192.00" departLane="-286219585_0" departPos="5.10" departSpeed="0.00" departDelay="0.94" arrival="328.00" arrivalLane="4218426#1_1" arrivalPos="72.10" arrivalSpeed="13.59" duration="136.00" routeLength="1005.12" waitingTime="1.00" waitingCount="1" stopTime="0.00" timeLoss="31.73" rerouteNo="1" devices="tripinfo_veh63 routing_veh63" vType="veh_passenger" speedFactor="0.99" vaporized=""/>
    <tripinfo id="veh69" depart="210.00" departLane="20434455#3_0" departPos="5.10" departSpeed="0.00" departDelay="0.74" arrival="329.00" arrivalLane="25991150#1_0" arrivalPos="1.89" arrivalSpeed="14.00" duration="119.00" routeLength="785.13" waitingTime="27.00" waitingCount="5" stopTime="0.00" timeLoss="62.92" rerouteNo="1" devices="tripinfo_veh69 routing_veh69" vType="veh_passenger" speedFactor="1.02" vaporized=""/>
    <tripinfo id="veh2" depart="7.00" departLane="4723685#0_1" departPos="0.20" departSpeed="14.03" departDelay="0.93" arrival="337.00" arrivalLane="439027698_0" arrivalPos="47.96" arrivalSpeed="13.73" duration="330.00" routeLength="2005.43" waitingTime="85.00" waitingCount="4" stopTime="0.00" timeLoss="122.67" rerouteNo="1" devices="tripinfo_veh2 routing_veh2" vType="veh_passenger" speedFactor="1.01" vaporized=""/>
    <tripinfo id="veh42" depart="128.00" departLane="44833848_0" departPos="5.10" departSpeed="15.17" departDelay="0.63" arrival="344.00" arrivalLane="30750471#0_0" arrivalPos="120.32" arrivalSpeed="8.61" duration="216.00" routeLength="1619.23" waitingTime="55.00" waitingCount="3" stopTime="0.00" timeLoss="84.31" rerouteNo="1" devices="tripinfo_veh42 routing_veh42" vType="veh_passenger" speedFactor="1.09" vaporized=""/>
    <tripinfo id="veh27" depart="82.00" departLane="1086450113_0" departPos="5.10" departSpeed="0.00" departDelay="0.12" arrival="351.00" arrivalLane="852060632_0" arrivalPos="62.55" arrivalSpeed="7.55" duration="269.00" routeLength="2215.75" waitingTime="30.00" waitingCount="4" stopTime="0.00" timeLoss="73.86" rerouteNo="1" devices="tripinfo_veh27 routing_veh27" vType="veh_passenger" speedFactor="0.95" vaporized=""/>
    <tripinfo id="veh6" depart="19.00" departLane="-132964154_0" departPos="5.10" departSpeed="0.00" departDelay="0.80" arrival="355.00" arrivalLane="1084325332#3_1" arrivalPos="19.48" arrivalSpeed="14.41" duration="336.00" routeLength="2357.84" waitingTime="111.00" waitingCount="7" stopTime="0.00" timeLoss="172.50" rerouteNo="1" devices="tripinfo_veh6 routing_veh6" vType="veh_passenger" speedFactor="1.05" vaporized=""/>
    <tripinfo id="veh71" depart="217.00" departLane="976108083#0_0" departPos="5.10" departSpeed="0.00" departDelay="1.68" arrival="355.00" arrivalLane="-4221162_0" arrivalPos="103.83" arrivalSpeed="7.18" duration="138.00" routeLength="969.41" waitingTime="0.00" waitingCount="0" stopTime="0.00" timeLoss="15.89" rerouteNo="1" devices="tripinfo_veh71 routing_veh71" vType="veh_passenger" speedFactor="0.97" vaporized=""/>
    <tripinfo id="veh59" depart="179.00" departLane="30710884#0_0" departPos="5.10" departSpeed="0.00" departDelay="0.07" arrival="366.00" arrivalLane="4722393#0_0" arrivalPos="76.25" arrivalSpeed="8.00" duration="187.00" routeLength="1201.98" waitingTime="9.00" waitingCount="2" stopTime="0.00" timeLoss="36.69" rerouteNo="1" devices="tripinfo_veh59 routing_veh59" vType="veh_passenger" speedFactor="0.97" vaporized=""/>
    <tripinfo id="veh76" depart="231.00" departLane="1267335227_0" departPos="0.20" departSpeed="0.00" departDelay="0.51" arrival="366.00" arrivalLane="83107522#0_1" arrivalPos="74.22" arrivalSpeed="14.23" duration="135.00" routeLength="920.11" waitingTime="17.00" waitingCount="1" stopTime="0.00" timeLoss="33.54" rerouteNo="1" devices="tripinfo_veh76 routing_veh76" vType="veh_passenger" speedFactor="1.03" vaporized=""/>
    <tripinfo id="veh84" depart="255.00" departLane="1292347198#2_0" departPos="5.10" departSpeed="0.00" departDelay="0.25" arrival="387.00" arrivalLane="4800516#0_0" arrivalPos="40.19" arrivalSpeed="8.26" duration="132.00" routeLength="1030.81" waitingTime="15.00" waitingCount="2" stopTime="0.00" timeLoss="30.07" rerouteNo="1" devices="tripinfo_veh84 routing_veh84" vType="veh_passenger" speedFactor="1.15" vaporized=""/>
    <tripinfo id="veh44" depart="134.00" departLane="-4221362#0_0" departPos="5.10" departSpeed="0.00" departDelay="0.56" arrival="393.00" arrivalLane="229207415#0_0" arrivalPos="17.29" arrivalSpeed="13.21" duration="259.00" routeLength="2053.71" waitingTime="46.00" waitingCount="6" stopTime="0.00" timeLoss="101.34" rerouteNo="1" devices="tripinfo_veh44 routing_veh44" vType="veh_passenger" speedFactor="1.04" vaporized=""/>
    <tripinfo id="veh90" depart="273.00" departLane="30710944_0" departPos="5.10" departSpeed="0.00" departDelay="0.06" arrival="397.00" arrivalLane="4741726#0_0" arrivalPos="66.18" arrivalSpeed="7.85" duration="124.00" routeLength="904.88" waitingTime="2.00" waitingCount="1" stopTime="0.00" timeLoss="19.96" rerouteNo="1" devices="tripinfo_veh90 routing_veh90" vType="veh_passenger" speedFactor="1.02" vaporized=""/>
    <tripinfo id="veh58" depart="176.00" departLane="1292347198#2_0" departPos="5.10" departSpeed="0.00" departDelay="0.10" arrival="400.00" arrivalLane="52288464_0" arrivalPos="12.90" arrivalSpeed="2.05" duration="224.00" routeLength="1242.78" waitingTime="42.00" waitingCount="3" stopTime="0.00" timeLoss="71.73" rerouteNo="1" devices="tripinfo_veh58 routing_veh58" vType="veh_passenger" speedFactor="1.02" vaporized=""/>
    <tripinfo id="veh33" depart="101.00" departLane="151885746#1_0" departPos="5.10" departSpeed="0.00" departDelay="0.92" arrival="404.00" arrivalLane="1192943711_0" arrivalPos="19.64" arrivalSpeed="14.48" duration="303.00" routeLength="2106.74" waitingTime="106.00" waitingCount="6" stopTime="0.00" timeLoss="165.67" rerouteNo="1" devices="tripinfo_veh33 routing_veh33" vType="veh_passenger" speedFactor="1.17" vaporized=""/>
    <tripinfo id="veh5" depart="16.00" departLane="1138010039_0" departPos="5.10" departSpeed="0.00" departDelay="0.84" arrival="405.00" arrivalLane="28145010#1_0" arrivalPos="39.00" arrivalSpeed="6.06" duration="389.00" routeLength="2707.27" waitingTime="70.00" waitingCount="4" stopTime="0.00" timeLoss="120.99" rerouteNo="1" devices="tripinfo_veh5 routing_veh5" vType="veh_passenger" speedFactor="0.83" vaporized=""/>
    <tripinfo id="veh3" depart="10.00" departLane="66227364#0_0" departPos="5.10" departSpeed="15.04" departDelay="0.90" arrival="406.00" arrivalLane="-314922404#2_1" arrivalPos="16.48" arrivalSpeed="12.78" duration="396.00" routeLength="1205.60" waitingTime="258.00" waitingCount="9" stopTime="0.00" timeLoss="315.38" rerouteNo="1" devices="tripinfo_veh3 routing_veh3" vType="veh_passenger" speedFactor="1.08" vaporized=""/>
    <tripinfo id="veh56" depart="170.00" departLane="-28368841#1_1" departPos="5.10" departSpeed="0.00" departDelay="0.17" arrival="417.00" arrivalLane="4754790#1_0" arrivalPos="130.63" arrivalSpeed="6.74" duration="247.00" routeLength="1582.13" waitingTime="26.00" waitingCount="2" stopTime="0.00" timeLoss="58.19" rerouteNo="1" devices="tripinfo_veh56 routing_veh56" vType="veh_passenger" speedFactor="0.90" vaporized=""/>
    <tripinfo id="veh12" depart="37.00" departLane="92419178#1_0" departPos="2.99" departSpeed="0.00" departDelay="0.61" arrival="421.00" arrivalLane="138497116#0_2" arrivalPos="61.47" arrivalSpeed="14.43" duration="384.00" routeLength="3071.41" waitingTime="86.00" waitingCount="8" stopTime="0.00" timeLoss="154.39" rerouteNo="1" devices="tripinfo_veh12 routing_veh12" vType="veh_passenger" speedFactor="1.05" vaporized=""/>
    <tripinfo id="veh10" depart="31.00" departLane="4824573#1_0" departPos="5.10" departSpeed="0.00" departDelay="0.67" arrival="424.00" arrivalLane="464074058#0_1" arrivalPos="12.24" arrivalSpeed="14.37" duration="393.00" routeLength="2038.60" waitingTime="175.00" waitingCount="9" stopTime="0.00" timeLoss="253.51" rerouteNo="1" devices="tripinfo_veh10 routing_veh10" vType="veh_passenger" speedFactor="1.09" vaporized=""/>
    <tripinfo id="veh7" depart="22.00" departLane="4221360_0" departPos="5.10" departSpeed="0.00" departDelay="0.77" arrival="428.00" arrivalLane="314789419#1_1" arrivalPos="12.96" arrivalSpeed="11.96" duration="406.00" routeLength="2627.67" waitingTime="75.00" waitingCount="6" stopTime="0.00" timeLoss="131.31" rerouteNo="1" devices="tripinfo_veh7 routing_veh7" vType="veh_passenger" speedFactor="0.89" vaporized=""/>
    <tripinfo id="veh41" depart="125.00" departLane="-1192943711_0" departPos="5.10" departSpeed="9.35" departDelay="0.66" arrival="430.00" arrivalLane="4708727_0" arrivalPos="6.51" arrivalSpeed="7.87" duration="305.00" routeLength="1900.97" waitingTime="82.00" waitingCount="6" stopTime="0.00" timeLoss="137.38" rerouteNo="1" devices="tripinfo_veh41 routing_veh41" vType="veh_passenger" speedFactor="0.96" vaporized=""/>
    <tripinfo id="veh39" depart="119.00" departLane="98643048_0" departPos="5.10" departSpeed="0.00" departDelay="0.72" arrival="432.00" arrivalLane="30710884#0_0" arrivalPos="76.31" arrivalSpeed="6.43" duration="313.00" routeLength="1347.99" waitingTime="101.00" waitingCount="3" stopTime="0.00" timeLoss="137.61" rerouteNo="1" devices="tripinfo_veh39 routing_veh39" vType="veh_passenger" speedFactor="0.90" vaporized=""/>
    <tripinfo id="veh28" depart="85.00" departLane="4223123#0_0" departPos="5.10" departSpeed="0.00" departDelay="0.08" arrival="434.00" arrivalLane="150276881_0" arrivalPos="4.01" arrivalSpeed="8.76" duration="349.00" routeLength="3048.15" waitingTime="79.00" waitingCount="4" stopTime="0.00" timeLoss="127.11" rerouteNo="1" devices="tripinfo_veh28 routing_veh28" vType="veh_passenger" speedFactor="1.13" vaporized=""/>
    <tripinfo id="veh48" depart="146.00" departLane="1319061581#0_2" departPos="5.10" departSpeed="0.00" departDelay="0.43" arrival="435.00" arrivalLane="4221183#0_0" arrivalPos="88.52" arrivalSpeed="6.68" duration="289.00" routeLength="1776.17" waitingTime="11.00" waitingCount="1" stopTime="0.00" timeLoss="44.49" rerouteNo="1" devices="tripinfo_veh48 routing_veh48" vType="veh_passenger" speedFactor="0.88" vaporized=""/>
    <tripinfo id="veh9" depart="28.00" departLane="4824702#0_0" departPos="5.10" departSpeed="0.00" departDelay="0.71" arrival="445.00" arrivalLane="-1150163951_1" arrivalPos="40.97" arrivalSpeed="11.26" duration="417.00" routeLength="1704.30" waitingTime="144.00" waitingCount="6" stopTime="0.00" timeLoss="212.27" rerouteNo="1" devices="tripinfo_veh9 routing_veh9" vType="veh_passenger" speedFactor="0.86" vaporized=""/>
    <tripinfo id="veh89" depart="270.00" departLane="929241513_2" departPos="5.10" departSpeed="14.20" departDelay="0.09" arrival="459.00" arrivalLane="314910672#0_0" arrivalPos="30.09" arrivalSpeed="7.67" duration="189.00" routeLength="1736.03" waitingTime="13.00" waitingCount="3" stopTime="0.00" timeLoss="37.68" rerouteNo="1" devices="tripinfo_veh89 routing_veh89" vType="veh_passenger" speedFactor="1.02" vaporized=""/>
    <tripinfo id="veh129" depart="392.00" departLane="49895860_1" departPos="5.10" departSpeed="0.00" departDelay="0.78" arrival="459.00" arrivalLane="95814391#1_0" arrivalPos="157.55" arrivalSpeed="7.66" duration="67.00" routeLength="587.71" waitingTime="5.00" waitingCount="1" stopTime="0.00" timeLoss="15.85" rerouteNo="1" devices="tripinfo_veh129 routing_veh129" vType="veh_passenger" speedFactor="1.01" vaporized=""/>
    <tripinfo id="veh22" depart="67.00" departLane="-4828716#5_0" departPos="5.10" departSpeed="0.00" departDelay="0.28" arrival="460.00" arrivalLane="142538178#2_1" arrivalPos="0.20" arrivalSpeed="10.21" duration="393.00" routeLength="2420.24" waitingTime="53.00" waitingCount="6" stopTime="0.00" timeLoss="113.82" rerouteNo="1" devices="tripinfo_veh22 routing_veh22" vType="veh_passenger" speedFactor="0.97" vaporized=""/>
    <tripinfo id="veh98" depart="298.00" departLane="439027697_0" departPos="5.10" departSpeed="0.00" departDelay="0.79" arrival="461.00" arrivalLane="1329587156_0" arrivalPos="7.23" arrivalSpeed="15.43" duration="163.00" routeLength="1441.84" waitingTime="33.00" waitingCount="2" stopTime="0.00" timeLoss="60.46" rerouteNo="1" devices="tripinfo_veh98 routing_veh98" vType="veh_passenger" speedFactor="1.12" vaporized=""/>
    <tripinfo id="veh82" depart="249.00" departLane="265485999_1" departPos="5.10" departSpeed="14.12" departDelay="0.32" arrival="466.00" arrivalLane="1157218234#1_0" arrivalPos="4.65" arrivalSpeed="7.87" duration="217.00" routeLength="1217.58" waitingTime="90.00" waitingCount="3" stopTime="0.00" timeLoss="114.98" rerouteNo="1" devices="tripinfo_veh82 routing_veh82" vType="veh_passenger" speedFactor="1.02" vaporized=""/>
    <tripinfo id="veh36" depart="110.00" departLane="-4221183#1_0" departPos="5.10" departSpeed="8.11" departDelay="0.82" arrival="468.00" arrivalLane="39921271#2_0" arrivalPos="101.59" arrivalSpeed="7.81" duration="358.00" routeLength="2507.70" waitingTime="28.00" waitingCount="3" stopTime="0.00" timeLoss="73.94" rerouteNo="1" devices="tripinfo_veh36 routing_veh36" vType="veh_passenger" speedFactor="0.97" vaporized=""/>
    <tripinfo id="veh21" depart="64.00" departLane="-52288464_0" departPos="5.10" departSpeed="0.00" departDelay="0.31" arrival="469.00" arrivalLane="4718872#0_0" arrivalPos="131.96" arrivalSpeed="7.33" duration="405.00" routeLength="2433.17" waitingTime="61.00" waitingCount="4" stopTime="0.00" timeLoss="109.34" rerouteNo="1" devices="tripinfo_veh21 routing_veh21" vType="veh_passenger" speedFactor="1.01" vaporized=""/>
    <tripinfo id="veh105" depart="319.00" departLane="4828716#3_0" departPos="5.10" departSpeed="0.00" departDelay="0.57" arrival="471.00" arrivalLane="4652510#2_0" arrivalPos="23.55" arrivalSpeed="8.35" duration="152.00" routeLength="1085.85" waitingTime="0.00" waitingCount="0" stopTime="0.00" timeLoss="21.67" rerouteNo="1" devices="tripinfo_veh105 routing_veh105" vType="veh_passenger" speedFactor="1.07" vaporized=""/>
    <tripinfo id="veh62" depart="189.00" departLane="138478937#0_2" departPos="5.10" departSpeed="0.00" departDelay="0.97" arrival="490.00" arrivalLane="314922404#0_1" arrivalPos="31.76" arrivalSpeed="10.79" duration="301.00" routeLength="1531.28" waitingTime="141.00" waitingCount="8" stopTime="0.00" timeLoss="191.14" rerouteNo="1" devices="tripinfo_veh62 routing_veh62" vType="veh_passenger" speedFactor="1.02" vaporized=""/>
    <tripinfo id="veh75" depart="228.00" departLane="19631601_0" departPos="5.10" departSpeed="0.00" departDelay="0.55" arrival="491.00" arrivalLane="130547039_0" arrivalPos="26.43" arrivalSpeed="7.60" duration="263.00" routeLength="1864.04" waitingTime="24.00" waitingCount="3" stopTime="0.00" timeLoss="67.38" rerouteNo="1" devices="tripinfo_veh75 routing_veh75" vType="veh_passenger" speedFactor="0.98" vaporized=""/>
    <tripinfo id="veh57" depart="173.00" departLane="265229649#0_1" departPos="5.10" departSpeed="0.00" departDelay="0.14" arrival="495.00" arrivalLane="314789424#2_1" arrivalPos="47.15" arrivalSpeed="7.17" duration="322.00" routeLength="3230.03" waitingTime="46.00" waitingCount="6" stopTime="0.00" timeLoss="116.87" rerouteNo="1" devices="tripinfo_veh57 routing_veh57" vType="veh_passenger" speedFactor="1.14" vaporized=""/>
    <tripinfo id="veh99" depart="301.00" departLane="1338909490#1_0" departPos="0.20" departSpeed="0.00" departDelay="0.76" arrival="500.00" arrivalLane="4744726_0" arrivalPos="67.34" arrivalSpeed="8.77" duration="199.00" routeLength="2072.66" waitingTime="28.00" waitingCount="3" stopTime="0.00" timeLoss="58.10" rerouteNo="1" devices="tripinfo_veh99 routing_veh99" vType="veh_passenger" speedFactor="1.10" vaporized=""/>
    <tripinfo id="veh16" depart="49.00" departLane="4828575_0" departPos="5.10" departSpeed="0.00" departDelay="0.48" arrival="501.00" arrivalLane="372160746#0_0" arrivalPos="58.36" arrivalSpeed="11.01" duration="452.00" routeLength="2528.14" waitingTime="54.00" waitingCount="5" stopTime="0.00" timeLoss="117.37" rerouteNo="1" devices="tripinfo_veh16 routing_veh16" vType="veh_passenger" speedFactor="0.88" vaporized=""/>
    <tripinfo id="veh11" depart="34.00" departLane="138483603#1_0" departPos="5.10" departSpeed="0.00" departDelay="0.64" arrival="504.00" arrivalLane="-4833240#0_0" arrivalPos="7.70" arrivalSpeed="8.36" duration="470.00" routeLength="2680.43" waitingTime="149.00" waitingCount="5" stopTime="0.00" timeLoss="203.62" rerouteNo="1" devices="tripinfo_veh11 routing_veh11" vType="veh_passenger" speedFactor="1.03" vaporized=""/>
    <tripinfo id="veh97" depart="295.00" departLane="1248983896_0" departPos="5.10" departSpeed="7.55" departDelay="0.83" arrival="504.00" arrivalLane="150276881_0" arrivalPos="4.01" arrivalSpeed="6.49" duration="209.00" routeLength="1492.41" waitingTime="41.00" waitingCount="2" stopTime="0.00" timeLoss="68.66" rerouteNo="1" devices="tripinfo_veh97 routing_veh97" vType="veh_passenger" speedFactor="0.91" vaporized=""/>
    <tripinfo id="veh50" depart="152.00" departLane="4783925#0_0" departPos="5.10" departSpeed="0.00" departDelay="0.36" arrival="507.00" arrivalLane="30710886#0_0" arrivalPos="40.24" arrivalSpeed="6.96" duration="355.00" routeLength="2028.89" waitingTime="27.00" waitingCount="2" stopTime="0.00" timeLoss="74.81" rerouteNo="1" devices="tripinfo_veh50 routing_veh50" vType="veh_passenger" speedFactor="0.85" vaporized=""/>
    <tripinfo id="veh43" depart="131.00" departLane="1292365242#1_0" departPos="5.10" departSpeed="0.00" departDelay="0.59" arrival="508.00" arrivalLane="4221183#1_0" arrivalPos="134.18" arrivalSpeed="7.81" duration="377.00" routeLength="2336.71" waitingTime="77.00" waitingCount="4" stopTime="0.00" timeLoss="119.33" rerouteNo="1" devices="tripinfo_veh43 routing_veh43" vType="veh_passenger" speedFactor="1.04" vaporized=""/>
    <tripinfo id="veh52" depart="158.00" departLane="-1292347198#1_0" departPos="2.51" departSpeed="0.00" departDelay="0.30" arrival="508.00" arrivalLane="84657866#0_0" arrivalPos="0.20" arrivalSpeed="8.75" duration="350.00" routeLength="797.69" waitingTime="243.00" waitingCount="5" stopTime="0.00" timeLoss="270.95" rerouteNo="1" devices="tripinfo_veh52 routing_veh52" vType="veh_passenger" speedFactor="1.02" vaporized=""/>
    <tripinfo id="veh26" depart="79.00" departLane="1338909490#0_0" departPos="0.20" departSpeed="0.00" departDelay="0.15" arrival="518.00" arrivalLane="1300575831#1_0" arrivalPos="34.69" arrivalSpeed="6.38" duration="439.00" routeLength="3492.26" waitingTime="81.00" waitingCount="6" stopTime="0.00" timeLoss="135.99" rerouteNo="1" devices="tripinfo_veh26 routing_veh26" vType="veh_passenger" speedFactor="0.92" vaporized=""/>
    <tripinfo id="veh64" depart="195.00" departLane="1248856300#2_0" departPos="5.10" departSpeed="0.00" departDelay="0.91" arrival="518.00" arrivalLane="431520090_0" arrivalPos="70.77" arrivalSpeed="7.52" duration="323.00" routeLength="1994.67" waitingTime="27.00" waitingCount="2" stopTime="0.00" timeLoss="66.67" rerouteNo="1" devices="tripinfo_veh64 routing_veh64" vType="veh_passenger" speedFactor="0.94" vaporized=""/>