<?xml version="1.0" encoding="UTF-8"?>

<!-- generated on 2026-01-11T17:32:10.839675+01:00 by Eclipse SUMO GUI 1.25.0
<sumoConfiguration xmlns:xsi="http://www.w3.org/2001/XMLSchema-instance" xsi:noNamespaceSchemaLocation="http://sumo.dlr.de/xsd/sumoConfiguration.xsd">

    <input>
        <net-file value="C:\Users\hamza\2026-01-11-17-31-52\osm.net.xml.gz"/>
        <route-files value="C:\Users\hamza\2026-01-11-17-31-52\osm.passenger.trips.xml"/>
        <additional-files value="C:\Users\hamza\2026-01-11-17-31-52\osm.poly.xml.gz,C:\Users\hamza\2026-01-11-17-31-52\output.add.xml"/>
    </input>

    <output>
        <tripinfo-output value="C:\Users\hamza\2026-01-11-17-31-52\tripinfos.xml"/>
        <statistic-output value="C:\Users\hamza\2026-01-11-17-31-52\stats.xml"/>
    </output>

    <processing>
        <ignore-route-errors value="true"/>
        <tls.actuated.jam-threshold value="30"/>
    </processing>

    <routing>
        <device.rerouting.adaptation-steps value="18"/>
        <device.rerouting.adaptation-interval value="10"/>
    </routing>

    <report>
        <verbose value="true"/>
        <duration-log.statistics value="true"/>
        <no-step-log value="true"/>
    </report>

    <gui_only>
        <gui-settings-file value="C:\Users\hamza\2026-01-11-17-31-52\osm.view.xml"/>
    </gui_only>

</sumoConfiguration>
-->

<meandata xmlns:xsi="http://www.w3.org/2001/XMLSchema-instance" xsi:noNamespaceSchemaLocation="http://sumo.dlr.de/xsd/meandata_file.xsd">
</meandata>
